ITEM: TIMESTEP
0
ITEM: NUMBER OF ATOMS
400
ITEM: BOX BOUNDS xy xz yz pp pp pp
0.0 19.7609 0.0
0.0 19.7609 0.0
0.0 10.0 0.0
ITEM: ATOMS id type x y z vx vy vz
1 1 17.140866421120606 2.5772854419673403 0.0 -0.11803458406391028 -0.00975889926145274 0.0
2 2 12.627144013168383 5.50284583955351 0.0 0.04477073855988653 0.011858945952115165 0.0
3 1 16.994359952576467 17.87537453945049 0.0 0.059945157483876126 -0.10116375542742874 0.0
4 1 8.379033024646285 7.652282460548746 0.0 -0.03587742633135445 0.02594234448810161 0.0
5 1 16.499234339399553 16.65521055935074 0.0 -0.02725471289061704 -0.031646349410198574 0.0
6 2 19.705587703170856 5.135555296040391 0.0 0.022114532367697393 -0.009949225283035665 0.0
7 2 2.798251493809033 13.612175349650874 0.0 0.003253983113121327 0.045797055676485565 0.0
8 1 8.657660675549387 15.69274463705929 0.0 0.11062834842852763 0.14489993443578075 0.0
9 2 4.2052870511324905 10.264603691761922 0.0 0.056442654340844826 0.004895474475516335 0.0
10 1 7.460322187726253 14.43742084150938 0.0 0.059028421903096796 0.001510769217923032 0.0
11 2 6.430945652274056 14.832896786516876 0.0 0.039735470543185845 -0.010513247075813609 0.0
12 1 14.53389334779201 16.813412106453683 0.0 0.05184164590716749 -0.04994325353691564 0.0
13 2 0.02912607236768615 10.86694064737576 0.0 -0.010976442742761274 0.08144385002682974 0.0
14 2 16.073982249131504 7.771879287470217 0.0 -0.04504124931305401 0.0028442996523395606 0.0
15 2 17.778949995803487 3.456519045786992 0.0 -0.05140793107476684 -0.027913522291915186 0.0
16 1 1.7593223290405031 12.38777002063713 0.0 0.027174211656740416 0.11830498578767465 0.0
17 1 7.224510254989012 17.140071430193178 0.0 -0.03225195491077803 -0.04028692417419941 0.0
18 2 13.299204312252165 1.5679588428684421 0.0 -0.05448861076794372 0.00823689926013657 0.0
19 1 19.499977218494166 18.926608550732322 0.0 -0.04440741409400335 0.004339838266511473 0.0
20 1 11.45360956199519 18.96520969334952 0.0 0.10049275267624574 0.06970439964831528 0.0
21 1 3.042422545745003 10.239477484997186 0.0 0.008967736556946397 -0.047961481376662514 0.0
22 2 19.26477513397601 15.309571170562323 0.0 -0.04676274511250046 0.04065020198514837 0.0
23 1 15.326629588819397 13.34253875485546 0.0 0.03269914139465523 -0.031422137888425725 0.0
24 1 13.825205907162793 10.607902473002623 0.0 -0.007843221130675357 -0.05097096778937113 0.0
25 1 3.2881196941589614 4.878992663979248 0.0 0.09563276443715824 0.024590665919469477 0.0
26 1 13.662842488518496 11.894291781627507 0.0 0.016491249771003975 0.11793750791843688 0.0
27 1 15.025397729290555 7.584622214692705 0.0 0.11116926692095092 0.0803266359411585 0.0
28 1 7.55600438136931 1.3880878762996676 0.0 -0.12056127172977978 0.018589147107537826 0.0
29 2 2.2253413031701488 14.74523144253677 0.0 0.022880367305124976 -0.005542529604891515 0.0
30 1 14.733988990587266 18.705012954587556 0.0 -0.05741596248602808 -0.03668897862232633 0.0
31 1 16.411550568017216 1.780018779668274 0.0 0.13121703786938915 -0.022640742108971348 0.0
32 2 0.9801493995470968 5.907843453873698 0.0 -0.042024489797084286 0.019152780948761574 0.0
33 1 15.84949746030164 19.401322771374172 0.0 -0.10800410454972154 -0.065968387023856 0.0
34 1 15.536986201821549 4.3989726794643955 0.0 0.001293240159049318 -0.2070283379331339 0.0
35 1 16.933812811387412 17.2062491249442 0.0 0.011806915972633501 -0.09111281612912871 0.0
36 2 11.48306126864356 13.480531595890625 0.0 -0.06832787574919899 0.028706315981739783 0.0
37 1 9.636982278901915 14.857740528621465 0.0 -0.11007800877019304 0.1938704820811618 0.0
38 2 8.951613200197695 12.649314589692455 0.0 0.0177717487313593 -0.02576206355545822 0.0
39 2 5.344216760220171 9.455697879834016 0.0 0.06760539246818396 0.041701031794539725 0.0
40 1 10.89960954731413 1.8284578357723928 0.0 0.028584108710296027 -0.05637191246663275 0.0
41 2 11.13151275926363 8.35754429774614 0.0 0.002339218887809863 -0.045744303336972436 0.0
42 1 3.285658507137588 10.904624366965393 0.0 -0.21830024414245347 -0.09649457707553291 0.0
43 1 6.974134027319219 17.76805876667523 0.0 -0.01619577253837716 0.03839031175002917 0.0
44 2 0.8377633135979148 7.15625401541051 0.0 0.014409898983266152 0.07087248484278966 0.0
45 1 7.631881452813931 17.67085689785649 0.0 -0.06984831946792368 0.06836393670823226 0.0
46 1 18.968867395715613 1.2412446564299897 0.0 0.013964635066627876 -0.00843332697017892 0.0
47 2 10.596702468737385 9.47206941827107 0.0 0.08066678903211377 0.0888568601555057 0.0
48 2 15.842293932243532 15.7383243013372 0.0 -0.034060655321176435 0.056119931684682295 0.0
49 1 12.495036247624538 16.878235806583678 0.0 -0.02748370128430227 -0.08960179275478074 0.0
50 2 8.301734862382553 0.5916191076797459 0.0 0.015181092898145539 -0.059857983020512096 0.0
51 1 19.03164575354701 9.930448890940571 0.0 0.08910154036759121 -0.025519262471339305 0.0
52 2 17.224221287249765 10.11523609427615 0.0 -0.06029873097788447 -0.03264675832563144 0.0
53 2 9.003397091209994 4.3386192219934205 0.0 -0.024545488725305008 -0.1113788722311852 0.0
54 1 9.155231318093811 16.101810792024466 0.0 0.02160456698624616 0.012517509163302583 0.0
55 1 3.3505814101474822 3.6596536127003794 0.0 -0.04710942553293549 0.024071668564270846 0.0
56 1 19.260928935521672 1.8896773346015148 0.0 0.04011287577559328 -0.1133571737110635 0.0
57 1 3.676751754084568 12.076409093124253 0.0 0.07403070058344259 -0.13874947520789468 0.0
58 2 7.230671254335036 6.291027613506679 0.0 0.0053136884675841255 -0.026805222952266845 0.0
59 2 15.295893820671482 8.7624651828145 0.0 -0.012789674835321807 -0.015532902611007095 0.0
60 1 6.942963779224171 13.223944709407624 0.0 -0.05370421030421267 0.000633849337864586 0.0
61 2 8.404648526842962 3.1304516956777215 0.0 0.004302341983982192 0.09750640526103542 0.0
62 1 10.080692568190356 15.373601052697582 0.0 -0.05776404986330208 -0.049603439601999484 0.0
63 1 16.65960486100726 13.624609619980859 0.0 -0.08164097794180805 0.06729904307780096 0.0
64 2 4.858053562347826 2.0892306166318777 0.0 0.04824495072614706 0.010612611787750567 0.0
65 1 9.815402692085762 15.998186869036722 0.0 0.09114039370265656 -0.10341017904081912 0.0
66 2 14.809983112306119 15.022446128045125 0.0 -0.042001929348575655 -0.059691962562129476 0.0
67 1 11.892355936464044 2.4494347822671525 0.0 0.2020031795922594 0.09125260967383418 0.0
68 2 14.021069060312627 17.838956212716784 0.0 -0.01693013215017041 -0.017772329202250546 0.0
69 2 14.501712803867369 1.2313085258724685 0.0 -0.021233115317814025 0.032201888210729786 0.0
70 1 14.937887530564762 13.932710362441433 0.0 -0.014914924185066366 0.045555411147110765 0.0
71 1 13.591497729160775 11.227328805192077 0.0 -0.16220258449732056 0.20343785401523234 0.0
72 1 13.482090037068632 3.29760479254746 0.0 -0.016158728483284156 0.1479820346764854 0.0
73 1 10.7686886685128 15.445180706334995 0.0 0.039140554252750814 0.07497718505672336 0.0
74 1 1.3909938396270207 9.321011670314135 0.0 0.03141111889571003 0.058535264386887685 0.0
75 2 15.956845615762228 9.91405030425604 0.0 -0.02304046208566172 0.10418345431866013 0.0
76 1 14.758842024291976 16.125546594580314 0.0 -0.06864298788201423 0.019941044865172283 0.0
77 1 10.354602366934328 13.1388987131864 0.0 0.15641520296115383 -0.08724429230189366 0.0
78 2 4.9184877577968065 4.3576324595536855 0.0 -0.15421838427876647 -0.09613241094315152 0.0
79 1 10.272570579745143 19.29919429468159 0.0 0.06336159643735785 0.0702860238885586 0.0
80 2 6.969479851885234 3.119805795851615 0.0 -0.05869393854591228 0.027586896329366475 0.0
81 1 3.000865749932597 12.214735099387891 0.0 0.009501145748076987 -0.0813550840452544 0.0
82 2 9.31263294363191 9.390117844311932 0.0 0.053443608372997366 -0.11317936651686544 0.0
83 1 14.260894078296133 11.144046426418075 0.0 -0.07622741524440432 0.05311468217973173 0.0
84 2 12.918370336510337 6.730157282447417 0.0 0.0314715442808468 0.03614192965264433 0.0
85 1 16.45029393229363 10.91895198752705 0.0 0.030503493242524122 0.0325927195110408 0.0
86 1 6.208956468497339 13.05875149313877 0.0 0.01161497939328481 0.06531258149578828 0.0
87 1 16.45640192881501 19.120711995893366 0.0 -0.16046589310916115 -0.07428704261327787 0.0
88 2 13.360816384672722 7.909949384927531 0.0 -0.036095230600926675 0.04411548593690759 0.0
89 1 17.09378946523018 0.06329453120133004 0.0 0.10438749650546188 0.036450911456803896 0.0
90 2 6.156722489703089 18.48745773499372 0.0 -0.05631327055097821 0.08389561358311982 0.0
91 2 6.1330418094571835 17.08353625502098 0.0 -0.00045987298426440837 0.055004110344937816 0.0
92 1 7.825297157290796 7.231354101597093 0.0 -0.0439897625167133 -0.02185960925493258 0.0
93 1 10.746188288862692 3.169267752386563 0.0 -0.0718067656573929 0.049078650517412045 0.0
94 1 4.641855155848142 7.977874789864896 0.0 -0.05815484538301451 0.0507177129902396 0.0
95 2 2.4230599752387474 4.211448399696519 0.0 0.020762789289796725 -0.006424434106259328 0.0
96 2 7.020806068049434 16.072429818987583 0.0 0.03266740425288275 -0.021617959469641096 0.0
97 1 10.438490805555405 10.730316566297471 0.0 -0.08372898947283759 0.09606336006491652 0.0
98 2 1.9302836405268322 18.158206340973027 0.0 -0.054045629283596096 -0.06868830115030936 0.0
99 1 7.684731141647874 2.3212880472999413 0.0 0.08070935938369543 0.08455689271888184 0.0
100 1 14.471680945981499 7.974729680473625 0.0 0.015100985069753001 -0.0013530311164467366 0.0
101 1 17.067840144226853 1.9089246177609294 0.0 0.16149546596693354 -0.0877960845734629 0.0
102 1 0.09561046118797475 2.254421794790262 0.0 0.04906315368072309 0.004390663605876495 0.0
103 1 11.929464144883468 17.220871502779143 0.0 0.01782259190651566 0.030806938399871534 0.0
104 2 14.819964192768776 0.04681386030324306 0.0 0.08900040582548474 -0.008798970613916605 0.0
105 1 12.17917012232814 8.771790515399717 0.0 0.03734924603577436 -0.10654090863160738 0.0
106 1 15.827269652329047 14.640939503195636 0.0 0.04098463598958299 -0.03065141729576813 0.0
107 1 7.122046664012405 5.178052317802693 0.0 -0.0758364847780144 -0.043973754095064564 0.0
108 2 19.1145113872041 17.899027771427882 0.0 0.008665921122859598 -0.07227249613276063 0.0
109 1 15.387915711110999 18.872017473212164 0.0 0.10421597443127106 -0.01900877000777209 0.0
110 2 16.446472750277284 6.594754754360853 0.0 0.010310975977177892 -0.02101331838584103 0.0
111 1 15.58321124818242 14.001487029313754 0.0 0.02307541153118123 -0.040684468649741734 0.0
112 1 1.3819469294807842 19.08369884252489 0.0 -0.07243931524962437 -0.00675488290320316 0.0
113 1 4.5703994456299615 3.2640025559268535 0.0 0.1469470709185867 0.041604377165521164 0.0
114 1 7.136094617141276 7.418859617272599 0.0 -0.002162677462139823 0.03311672995793163 0.0
115 1 8.21366046078589 9.61642722020691 0.0 0.14672357873943315 0.0610665179991504 0.0
116 2 11.633175461432682 16.184541276143637 0.0 -0.008747857629359654 -0.07425061622508977 0.0
117 2 12.48566153421319 12.593139414946432 0.0 -0.027057604874218922 0.034814854659956075 0.0
118 1 11.314650768229772 1.283111829117974 0.0 0.028647364705129692 0.09985813947943437 0.0
119 1 5.26081106097428 7.679897647489366 0.0 0.09872118858702367 0.04817990225726449 0.0
120 2 7.405706002962442 18.769906913017152 0.0 -0.13349922966866698 -0.013570143354406884 0.0
121 2 15.73302060668944 0.9036028198942477 0.0 -0.03305397115295227 0.005846813157559503 0.0
122 1 0.24521825819243706 17.218755336104156 0.0 2.105897189409582e-7 -0.041865026548944424 0.0
123 2 18.15684453544177 2.094861926789439 0.0 0.017997164194558542 0.050914397069926814 0.0
124 2 8.042567901151227 13.479289219580512 0.0 0.03155215131611398 0.03957571210612603 0.0
125 2 18.764930862794834 4.275878139133785 0.0 0.016287184820788586 0.02964304314396885 0.0
126 2 6.109509713300665 2.1547542207024115 0.0 -0.014597789394036905 -0.024221798156726603 0.0
127 2 1.2179369604800754 14.02239784569493 0.0 0.02350630878311404 -0.17726683961452025 0.0
128 2 2.2251279181681256 11.355380578651017 0.0 -0.034286043403646715 0.01017217238161298 0.0
129 2 9.921160958048562 8.33778394522119 0.0 -0.11424346408401363 -0.0016846432510089658 0.0
130 1 5.038509911575251 15.111192622910444 0.0 -0.00700578715316007 0.047483323061274146 0.0
131 1 4.998363611270204 11.756850396311396 0.0 -0.09271736751449501 0.06291978682544262 0.0
132 1 6.43448597189452 13.687144479763461 0.0 -0.08532327027902284 -0.047526046698807736 0.0
133 2 0.7196025123412416 12.842103271388558 0.0 0.0005057398603239691 -0.03226818928788088 0.0
134 2 8.614340296933996 1.786524831281004 0.0 0.014371423181352138 -0.01778407344264315 0.0
135 2 4.677645061857193 16.416229752583806 0.0 -0.055889239293997445 -0.008792858436172578 0.0
136 1 12.226587271086986 1.8386732112389959 0.0 -0.06981116779107117 -0.02037123525883028 0.0
137 2 11.121545552981468 0.2199454190853257 0.0 -0.003956607868247942 0.10422614535596772 0.0
138 1 8.610140272975466 10.223403885587656 0.0 0.09629709178844321 -0.0042617946033265625 0.0
139 1 9.765930025255022 10.928069919305123 0.0 -0.04470795698647875 -0.14962367319129588 0.0
140 2 1.9669320892785642 15.96389441565455 0.0 -0.04291304358322625 -0.11133473552276454 0.0
141 2 0.3293262638994884 9.634043126833006 0.0 -0.013328060864177323 -0.002016639600721211 0.0
142 2 11.680101937502668 6.408523919623665 0.0 -0.001446714317266356 0.002082636274522312 0.0
143 1 15.850190398292497 16.827624108988896 0.0 -0.005163413228135131 0.05935786184683384 0.0
144 1 5.715121528704452 7.14775134290501 0.0 0.08434366035777116 0.0019748739315065475 0.0
145 1 3.948029923569823 4.899781519030298 0.0 0.016116775979799304 0.038669788311300905 0.0
146 2 12.351204467954304 3.4533757551845405 0.0 0.02812065369181202 0.012407405106911351 0.0
147 2 7.73083836761116 12.250351108994519 0.0 -0.05528175237617122 -0.024235880039427646 0.0
148 2 12.48949332773088 19.286810943825348 0.0 0.00045653497038997354 -0.04704011225913608 0.0
149 2 18.03649667326025 17.244761715850398 0.0 0.03281974852642665 0.03212663412255402 0.0
150 2 19.42298077329453 7.599574034465998 0.0 0.05344369006221237 0.05009463744018523 0.0
151 2 3.6865243593254684 2.6151090852337338 0.0 0.0029013870531478464 0.05346907966017511 0.0
152 1 6.708711692208312 12.58557367630656 0.0 -0.023924016919294248 0.09918061323751894 0.0
153 2 14.717785161892516 12.215664773963782 0.0 -0.06414016154589236 0.08423570956605056 0.0
154 2 15.79886515593085 3.3332834855354245 0.0 -0.006907511174260715 -0.05752775157359594 0.0
155 1 9.671075007951568 7.260593032623168 0.0 0.005704968268145591 -0.14103766918977495 0.0
156 1 9.345638998287065 0.24250148405964608 0.0 -0.10492355805987279 -0.06575825725451265 0.0
157 2 17.889459724146796 9.063089815746302 0.0 0.052994518227855884 -0.040135348166111154 0.0
158 2 4.1076010680284 13.675589772762995 0.0 -0.023207744177742712 -0.05464156311131194 0.0
159 1 3.3380910727897772 9.621534736642559 0.0 0.11555654419051171 -0.05137242635189499 0.0
160 1 2.6756283804279652 9.616773198517103 0.0 0.17290871076133782 0.22881167306720468 0.0
161 2 8.57324721536121 19.16947132987108 0.0 0.01081891799674116 0.05002277881151562 0.0
162 1 18.382612561522787 19.47365627963438 0.0 0.07043646073155144 -0.02185331384879429 0.0
163 2 5.6656931938339445 3.3028351911418037 0.0 -0.04827231082510398 -0.07208541597895943 0.0
164 1 5.479619586981253 6.494228621551805 0.0 -0.03428095790370399 -0.039207417283124435 0.0
165 2 3.453486196626877 14.755889929243047 0.0 -0.13452561041399982 0.04751974594233484 0.0
166 1 13.193404550924575 16.892905105695885 0.0 -0.04408669340624842 0.061117542189117906 0.0
167 2 10.58493334140597 14.337002783664039 0.0 0.048099454653483996 0.03240940984391252 0.0
168 1 9.063787131697659 7.651029774217697 0.0 -0.04456827057266073 0.02739066622623862 0.0
169 1 9.270739804539643 10.468146376217868 0.0 -0.06775407757555027 -0.04944306953871883 0.0
170 1 4.029383227006636 3.6941981806025983 0.0 0.02258023208045796 0.02871889554852127 0.0
171 1 2.0087532039835123 9.645144505944861 0.0 0.03185125177888674 -0.0592159426184686 0.0
172 1 8.165208790279193 8.290007330799284 0.0 -0.06324437075189263 -0.01973858192888891 0.0
173 2 3.0229024739104955 8.538421900935173 0.0 -0.011212059323720582 0.02015046016099492 0.0
174 1 1.835569348899658 13.059963862604063 0.0 0.009281297939445031 -0.010043882290156058 0.0
175 2 8.232998745755257 16.71336763267351 0.0 0.029073693632255305 -0.04236926344362864 0.0
176 2 9.975819508463067 11.972445023581853 0.0 0.07123031703009376 0.006027043969859146 0.0
177 1 1.9767631255234799 8.977073565952471 0.0 -0.18346402280792465 0.010101980686154994 0.0
178 1 19.159258941990494 19.55046589330538 0.0 -0.004463394990961064 0.008638040875656608 0.0
179 2 6.258793006309394 8.190805691517632 0.0 0.00022060488037224004 0.02217051120629445 0.0
180 2 12.514308195141252 15.260556096106024 0.0 0.026901038730753262 0.015742865590698853 0.0
181 1 10.367313544160512 7.364862260968878 0.0 -0.0971018525107875 0.054605491852007984 0.0
182 2 6.496483150830276 9.93678066833108 0.0 0.03717560994266322 0.06171740931777851 0.0
183 1 16.828913386555637 1.2779577278923748 0.0 0.05828364048796405 0.12375000444110122 0.0
184 1 3.631481076442055 4.281920875659784 0.0 0.17330314718132858 -0.007375764159698932 0.0
185 1 16.886730895421813 14.255931872925274 0.0 0.13177686211910836 -0.027155222635386955 0.0
186 1 2.373009815425621 10.241628091883923 0.0 -0.03414981579683609 0.11235955397301463 0.0
187 1 11.724353824682572 9.259001586512685 0.0 0.025992177668856788 0.035861553683296396 0.0
188 1 11.132988264512834 18.28498999158542 0.0 -0.07083201614090003 -0.009261074484198389 0.0
189 2 4.206579135493209 8.966551865205025 0.0 0.08365419043123863 -0.021708910513961156 0.0
190 1 9.355859667626156 0.927647780509006 0.0 0.0052268912842910855 -0.07067688832273826 0.0
191 2 17.8278955379308 14.790542322742937 0.0 -0.0859193271258694 -0.018180889077224593 0.0
192 2 3.808586392843962 17.318958774070982 0.0 0.07867666607817604 -0.01863286517680548 0.0
193 1 6.13334086242504 6.611880112821021 0.0 -0.022755050176645242 0.06800777411401673 0.0
194 1 16.013055889951207 13.42506965848526 0.0 0.023898175939009378 -0.07898565844957126 0.0
195 2 4.771619288085599 5.643018223304833 0.0 0.03794160999506985 0.020012946685585523 0.0
196 1 12.135211774120569 4.522448015545872 0.0 -0.0025214516234288347 -0.06023481039697691 0.0
197 1 10.486791580858595 16.064049038741285 0.0 -0.012974866582038596 -0.029256629746829813 0.0
198 2 0.6307548665183434 18.276248019672128 0.0 0.07628222904623824 -0.009250099923679592 0.0
199 2 7.2799904953051024 8.941209763391628 0.0 -0.04356351216616956 -0.02093045670596898 0.0
200 1 17.717404828286377 4.578383125057162 0.0 0.09745292439183866 0.08952565281063932 0.0
201 2 13.56424165224754 0.20987133587164303 0.0 -0.019155842402827444 0.029365971578328945 0.0
202 2 19.048758992796188 12.901802825348414 0.0 -0.03563048175611826 -0.029416801778406634 0.0
203 2 5.765677975441339 0.04380282743500117 0.0 -0.05652335563291652 0.026579220856665017 0.0
204 1 16.23400957420918 14.128295145016104 0.0 -0.04098297926080605 -0.17308217985863317 0.0
205 2 4.4586116397788755 6.894154259257207 0.0 -0.08345301304507996 0.08616834667201612 0.0
206 1 16.487779451011736 14.795373876808892 0.0 0.013277218379395921 -0.10534888597008588 0.0
207 1 18.36626946316088 10.022713743121088 0.0 -0.019790776236772382 -0.03453866491058827 0.0
208 2 3.4579265364269616 16.032670975569832 0.0 0.046069549819927974 -0.03312454622783985 0.0
209 1 18.835293883364937 18.976683549896144 0.0 0.23591012360455313 0.09159051153540271 0.0
210 1 17.701037587432754 19.557299183046158 0.0 0.07403241399302125 -0.047272233358347376 0.0
211 1 6.08107608361876 12.382549865952099 0.0 -0.010035642323282332 -0.09467812087354721 0.0
212 1 11.376990894627967 15.117405134207239 0.0 -0.09470543699649468 0.09061998477613883 0.0
213 2 17.414271735682178 11.464304884205585 0.0 0.016480391912689928 0.05534905553392481 0.0
214 1 8.833330719222857 8.319013872420964 0.0 0.004178534322750874 0.041460754432622156 0.0
215 1 0.1161653671019197 13.744244537721682 0.0 0.04462034331469886 -0.17359970781673797 0.0
216 1 15.30671664646141 6.920499994431074 0.0 0.05113502377031706 0.036404094484874736 0.0
217 1 16.892899611893412 15.337701389690077 0.0 0.10284551356598953 -0.03985652102644649 0.0
218 1 10.784328614980772 2.495872663243209 0.0 -0.025594121068189712 0.0929369444660054 0.0
219 1 12.832031694774097 8.88116769680126 0.0 -0.02289920616997006 0.04798287524134207 0.0
220 1 6.883364726804657 1.315653750480164 0.0 -0.04529904753408942 0.0525480359792265 0.0
221 2 5.110676717877121 12.848043193752556 0.0 0.04306508550922461 0.059550897642826194 0.0
222 2 1.277883172650524 10.436037170646287 0.0 -0.007632885134419799 -0.013661427153911583 0.0
223 1 16.769983210908666 0.6281327115463179 0.0 0.19471864783308956 -0.03197386031211755 0.0
224 1 10.856395919985616 11.275342592896093 0.0 0.07311092129945847 -0.04184056043523643 0.0
225 1 16.41781318384016 0.03498637316525096 0.0 -0.05843690221612599 0.005810310283234784 0.0
226 1 13.461865628997279 18.820990544979335 0.0 -0.017902984719444813 -0.09772804468438538 0.0
227 1 5.1744703723828716 8.371079306402496 0.0 -0.04253971093127919 -0.03862978785414014 0.0
228 1 10.638260647212203 1.1973634527711658 0.0 0.016740084086086463 0.021998051201150812 0.0
229 2 16.65984979912467 4.287193565506596 0.0 -0.025016604852542434 -0.02629250284853683 0.0
230 1 7.621719070115019 7.8900478772819245 0.0 -0.06132760619050837 -0.08722294857479805 0.0
231 1 16.90659117952483 15.993205402206895 0.0 -0.14249290800404146 0.04685189547320492 0.0
232 2 2.532603065372181 19.260172486983514 0.0 0.040393381126862284 0.006212312074494838 0.0
233 2 8.567699542171647 14.622528801224451 0.0 -0.044451811535552395 -0.015174063517723591 0.0
234 1 10.530130660390848 6.101130677129349 0.0 0.044312847834754726 -0.13677299662826853 0.0
235 1 10.801548606787174 18.895819941984634 0.0 0.0707399214000291 -0.0007575582700789307 0.0
236 1 10.017696587556404 0.16690320570844783 0.0 -0.14403173834246294 0.040153550750690783 0.0
237 2 0.43342952214123015 1.2310192123029384 0.0 0.02612215767555021 -0.03527972255449687 0.0
238 2 12.779252409576626 17.93816460133466 0.0 0.030880544073143848 -0.003797214625090543 0.0
239 1 16.32746814500859 11.59709998671766 0.0 -0.05450350971015496 0.037299117925940366 0.0
240 1 13.33779622035224 3.9494467692267805 0.0 -0.02002957307786922 0.029461977799582706 0.0
241 1 13.160037616183429 2.717969670134184 0.0 -0.0006609478866895745 -0.16780099073744661 0.0
242 2 15.408417497324473 2.139944215551468 0.0 0.051324342694469324 -0.035248654861480544 0.0
243 1 15.195540753604185 16.653910593646195 0.0 0.08018573314593784 0.014510116522807103 0.0
244 2 17.74100620965677 13.527239528956708 0.0 -0.019524010580109913 -0.006357903450380362 0.0
245 2 15.348013638921692 11.088044031949817 0.0 -0.0543362634601697 -0.02806124542183839 0.0
246 2 14.722462902643896 10.012588231833819 0.0 -0.030076425620743315 -0.11859134151618832 0.0
247 1 14.11162388690677 18.974766378810205 0.0 -0.07101693177050357 -0.030410816533498804 0.0
248 2 17.809345213571277 6.620754092544524 0.0 -0.0460009607506017 -0.04245123411396292 0.0
249 2 16.82206094138497 12.572138029197768 0.0 0.04601055736108427 -0.012328866998655973 0.0
250 2 1.3448166965662633 3.4553144164558844 0.0 0.04484133901635206 0.022650608764086755 0.0
251 1 3.2472300480323546 11.582100247017571 0.0 0.04784793230624323 0.06480400081724466 0.0
252 2 10.398073709119748 4.272221459739313 0.0 -0.07486582171302314 -0.039423458710881924 0.0
253 1 7.6986558165875785 11.150026165435676 0.0 0.07253290276026814 0.11710627778601501 0.0
254 1 4.536284463390783 14.679760077814299 0.0 -0.08782279661877951 0.004339578864769184 0.0
255 1 11.269853264868578 3.5730578771482664 0.0 0.05417256056342887 0.0256695655891083 0.0
256 2 10.793918032531842 17.160020742838274 0.0 -0.00736363769009213 0.056226329639099654 0.0
257 1 13.38231154602306 13.215365223183541 0.0 0.012749097984885376 -0.07224228863292549 0.0
258 2 18.872064416356217 14.128382402204375 0.0 -0.1308390384606963 -0.05848128353720967 0.0
259 2 1.7627460976619524 1.0171797011985755 0.0 -0.005798271274920742 -0.0379058214565155 0.0
260 2 19.127634936480508 8.828995861324572 0.0 -0.0013836050651244765 -0.05790635780227187 0.0
261 2 17.169117796789806 5.525393991259165 0.0 -0.10085752623916454 -0.016574432251616814 0.0
262 1 18.783232223003658 10.53949807597534 0.0 -0.1104201626047998 0.08037544474831863 0.0
263 2 9.567917616839798 17.077544202085175 0.0 0.023183018253938502 -0.022546742300404352 0.0
264 2 14.215230148354253 2.48665198850303 0.0 0.05688104338418443 0.01174094772646899 0.0
265 1 4.401099856611522 15.347566589397552 0.0 -0.03697473818557785 0.06227083135544382 0.0
266 2 11.263434193266518 5.243665745334982 0.0 -0.001561616898927214 0.05332642789022385 0.0
267 2 4.075297572906321 18.52255847585404 0.0 0.08207066316584914 0.04814193337501655 0.0
268 1 12.844923337004714 4.439742156010025 0.0 -0.050634351433510943 -0.0350515343758747 0.0
269 2 2.756092838010033 1.7609380130291075 0.0 -0.041948791645945935 -0.04314779399823808 0.0
270 2 8.242066864863528 5.431065179100942 0.0 0.03256998314179446 -0.01374722485349234 0.0
271 2 12.722468187758578 10.527139682831283 0.0 -0.0028840183873171817 0.0032537121002849615 0.0
272 1 9.921055202123728 10.2951597389235 0.0 -0.07946713657105778 -0.1057442895581571 0.0
273 2 9.943870722001341 18.249629170733307 0.0 -0.042129474315929706 0.004075976455869049 0.0
274 2 11.953566570522739 11.469090381775061 0.0 -0.15787003148564885 0.03931294017508313 0.0
275 1 3.9677862611764056 7.894064167171825 0.0 0.06914667844450428 0.05155307657105525 0.0
276 1 12.581419245601275 2.39254762396934 0.0 -0.11021452268235003 -0.009197591869218091 0.0
277 1 13.077642617477442 9.504712139562724 0.0 -0.016574198102728907 -0.09357276283407642 0.0
278 2 5.491662960180296 10.767059980864115 0.0 -0.0017841250389626887 -0.054097123138906286 0.0
279 1 19.313768103545847 0.5974717240905155 0.0 -0.018499719506413815 0.01707534373813423 0.0
280 2 1.326142746354912 17.085734344597963 0.0 -0.009391031085133103 -0.03390209148127594 0.0
281 2 0.5674880411860167 16.07096067332766 0.0 -0.05508394723560302 -0.02868559961872127 0.0
282 1 17.174439131129798 16.60073377523673 0.0 -0.04584292043721812 0.0255696762133061 0.0
283 2 2.0127133530284773 6.64577800837205 0.0 -0.021078185408884398 -0.03871305473099229 0.0
284 2 1.9126109738350665 7.893409066119347 0.0 0.07706086364822706 0.04492950132888097 0.0
285 2 0.1957579922878699 3.9249214626447637 0.0 0.043891275815622285 -0.0342031815634954 0.0
286 2 7.065981553777711 0.23622534698660036 0.0 -0.009656895255755636 0.1459181995531889 0.0
287 1 0.17557259612044054 14.415061837189805 0.0 -0.12156620754127823 0.04144740538760538 0.0
288 1 15.726027314383282 12.772487725364625 0.0 -0.13790069463352128 -0.08647379926655709 0.0
289 1 11.522335648600112 4.193864981502271 0.0 0.1123855471875819 -0.11341303359197327 0.0
290 1 6.530348734782416 7.144026626030929 0.0 0.06474467011488735 -0.17672842632142227 0.0
291 1 5.126799426320487 18.850483680846214 0.0 0.030555659894811613 -0.06305450295825565 0.0
292 2 11.486188099468906 10.32007094064951 0.0 -0.034869001838414015 0.11311356275205055 0.0
293 1 7.348859375738984 10.59344586068261 0.0 -0.036280877817995626 -0.06916718294082312 0.0
294 1 0.39281171092102074 2.8603563102234886 0.0 0.14035701740352202 -0.03333018540100664 0.0
295 1 3.5053352130802025 0.9753362255980234 0.0 0.07548896234426415 -0.022319360143490345 0.0
296 1 2.4100874778516665 12.566879606872508 0.0 -0.0398023100839985 -0.012280342010140017 0.0
297 1 4.748400563588162 19.410998204927136 0.0 0.03326779827961805 -0.12721724442275317 0.0
298 1 7.997533725301829 15.599739981232272 0.0 -0.045623591045999556 -0.0029256925785353318 0.0
299 2 2.4777561954608096 2.96363043857339 0.0 -0.01649978711166709 0.03530465554822421 0.0
300 2 4.618686356669075 0.7464350738340862 0.0 -0.00996228290394033 0.01602629282462819 0.0
301 2 2.3346953445994365 5.4601776300328275 0.0 -0.061873302709933395 0.00998276241942684 0.0
302 2 13.73385614201077 15.684562350920954 0.0 0.011590070047678891 -0.013680061089075246 0.0
303 2 14.780559684261764 5.86411662050727 0.0 -0.02596203649884989 0.017002663655586822 0.0
304 2 3.1307691105156277 7.202530000726919 0.0 -0.059001607250644725 -0.039543771566087585 0.0
305 2 3.533030689041926 5.95677320195807 0.0 -0.03975864041563686 0.05140358685411129 0.0
306 2 8.754563333303123 11.398922436059665 0.0 0.026044837144209625 -0.0742481511344502 0.0
307 2 5.413094728583907 14.027719868551804 0.0 0.009304241294891538 0.0791451618945599 0.0
308 1 13.610643047752525 12.558356862203217 0.0 -0.0028567754079510343 0.009582165394516336 0.0
309 2 9.670768328207048 3.198384922362365 0.0 -0.002896656706916098 -0.01907563460365292 0.0
310 1 2.837317038275738 0.6229016891931219 0.0 -0.0458672142006457 -0.0036390391580350535 0.0
311 2 6.641867014816041 11.448090530590976 0.0 0.027398899901194245 -0.06204925820562211 0.0
312 1 9.342293785295999 15.454612116961663 0.0 0.023602676091937 0.12135482324401084 0.0
313 1 14.984694709275173 4.775272093831726 0.0 0.05294864950509471 -0.008146771609300666 0.0
314 2 19.133557282689313 16.57580736800749 0.0 0.07072530607694444 0.05075547210533594 0.0
315 2 19.446273917850807 6.3448814035424475 0.0 0.015334582974053863 0.09200139003132979 0.0
316 1 17.115570205544167 19.16821773939959 0.0 -0.006922027647973964 0.01794819426051179 0.0
317 2 3.6835378319159573 19.672974881104786 0.0 0.07342755370729218 0.034999327377401426 0.0
318 2 7.695123683863104 4.225120343157664 0.0 0.03470479077654052 -0.04735249409044347 0.0
319 1 4.533239886961788 11.291742614684525 0.0 0.11990010705566982 0.05219621389882956 0.0
320 2 14.523053512813421 3.7482341307432603 0.0 -0.02519131586486632 0.06352381371039181 0.0
321 1 10.618279656828287 6.761837169650974 0.0 0.1979847485186877 -0.0781859682157674 0.0
322 1 6.275609837454537 1.0323572153140876 0.0 -0.01853929345151944 0.05132198616659193 0.0