ITEM: TIMESTEP
0
ITEM: NUMBER OF ATOMS
400
ITEM: BOX BOUNDS xy xz yz pp pp pp
0.0 19.7609 0.0
0.0 19.7609 0.0
0.0 10.0 0.0
ITEM: ATOMS id type x y z vx vy vz
1 1 15.261498260287715 18.279835594642048 0.0 -0.04882492220794242 0.0019520367675397328 0.0
2 2 14.21058011318483 0.521494307363741 0.0 0.05495901927817876 0.01033872732772691 0.0
3 1 15.83847221196744 11.478507233072994 0.0 -0.12157385940459382 0.11551073008637874 0.0
4 1 17.904372298073827 18.519013947650713 0.0 -0.08678915901184503 0.0631652269267797 0.0
5 1 15.24299443062288 11.197259640709127 0.0 -0.028799880108852864 -0.10656787830548714 0.0
6 2 3.58645307081753 7.033878899882887 0.0 -0.002861230155554913 -0.01765635104457091 0.0
7 2 18.933512762218253 3.485427046186956 0.0 -0.05914602272801401 0.03579253149160963 0.0
8 1 5.896767829671488 17.288363475584124 0.0 0.12237481551785473 0.10659778764068616 0.0
9 2 13.671398881691825 9.307727790654344 0.0 0.09966147759528562 0.009296962090454147 0.0
10 1 13.269363738348385 15.372717972954632 0.0 0.02965878333012224 -0.05478746588447227 0.0
11 2 11.561044244422 6.657369299255353 0.0 -0.059387997422163684 -0.0017580496670489268 0.0
12 1 12.84343958401079 11.632233880015093 0.0 -0.016645487852226987 0.11443527752130143 0.0
13 2 15.510774897088481 0.6995051254004644 0.0 -0.06941230141890725 0.024348775740468696 0.0
14 2 13.485044204990336 16.984217446300008 0.0 0.033589621714620654 0.06031635978406902 0.0
15 2 18.452467283673275 16.224806866030644 0.0 -0.052922486543688724 -0.04153831889804824 0.0
16 1 7.612924057072237 8.833899293449056 0.0 -0.1499762197962468 -0.030382062472067047 0.0
17 1 8.774659052500716 8.180255730067893 0.0 -0.14956608640662555 -0.042844176755820085 0.0
18 2 8.03527258947961 3.8495211189761656 0.0 -0.054182921561692104 0.03667222489958423 0.0
19 1 0.9405836736499141 4.469914647920044 0.0 0.11123421378977993 -0.06725514512329386 0.0
20 1 1.3099323769007472 14.30233227200606 0.0 0.04499850158802755 -0.07481834195191074 0.0
21 1 18.371319674878237 0.07270517147735066 0.0 -0.05698054193321531 -0.007188299394655012 0.0
22 2 4.701958732368689 2.4330626011499272 0.0 0.02781736215077453 -0.029461195804367592 0.0
23 1 8.295404466805783 9.922810026245628 0.0 -0.11498172509930624 -0.09333874070432312 0.0
24 1 9.393103914383241 12.261494121723267 0.0 -0.0281556908608004 -0.06162810914082818 0.0
25 1 18.787125362252663 13.488436909294768 0.0 0.09861584336380193 -0.05460061720679768 0.0
26 1 11.794798342333465 10.835521175679677 0.0 0.025303653135098136 -0.05734385512638149 0.0
27 1 3.824843303592718 17.821047762532576 0.0 -0.06285333121899102 -0.1492436935230311 0.0
28 1 0.0007672444771174784 14.153400769027801 0.0 0.009300236811119567 0.03197127865111451 0.0
29 2 9.928929944196389 9.94317788928834 0.0 0.0789759529357311 0.0010931611651954064 0.0
30 1 9.411695033736711 14.075329925357165 0.0 -0.008816044963726396 -0.15422385587107884 0.0
31 1 7.960946297544729 1.7474707792436566 0.0 -0.03467675636725571 0.0673429985930579 0.0
32 2 16.829467001547826 0.7875935941119148 0.0 0.11877536066633626 0.03213410055341197 0.0
33 1 17.78110443944254 1.3340076550257267 0.0 -0.03390800403254754 0.03017383710332509 0.0
34 1 10.009474400489166 1.184504604959565 0.0 -0.15260845056195024 -0.11026359910541643 0.0
35 1 0.6529664692473995 1.5581426977098793 0.0 -0.005678552825349448 0.02862852987617474 0.0
36 2 3.6367753419467297 9.563129204511391 0.0 0.07546476911537994 0.009449594760126322 0.0
37 1 6.937904849254698 8.730275219118518 0.0 -0.09945706817178661 0.07007917945025276 0.0
38 2 18.312721024919988 9.441585676104351 0.0 0.06760617452608161 -0.028146060006865658 0.0
39 2 10.560557706978248 7.482986629638599 0.0 -0.013888680344515148 -0.023115939635405133 0.0
40 1 10.571965809997526 16.235439152160946 0.0 -0.04916485420543683 -0.026255781196692942 0.0
41 2 16.913847651403593 4.379146849635365 0.0 -0.047172910293647244 -0.07631512664611972 0.0
42 1 1.316796653498797 7.243848454337358 0.0 0.018890135293061553 0.007290861956152525 0.0
43 1 4.543223653618853 6.5202510238996325 0.0 -0.09513720794968805 0.07300031121410229 0.0
44 2 1.6936288486857847 1.2819448465300562 0.0 -0.0736240608889878 0.01512543498564267 0.0
45 1 9.217319726576942 10.822559964258573 0.0 0.04569798371331908 -0.055973667841221805 0.0
46 1 7.971743484400426 18.742305540890815 0.0 -0.08033496747945834 -0.18787486553066246 0.0
47 2 16.154294133187236 9.04225771121919 0.0 0.014643771593399425 0.028192626233109235 0.0
48 2 8.933472429444674 1.2189250122054498 0.0 -0.0971027294031482 -0.048703186698645554 0.0
49 1 2.7755190248889257 1.053827082841379 0.0 -0.043629377217177016 0.0518561904898453 0.0
50 2 0.3174492134266989 6.777969650373008 0.0 0.030677577854169455 0.015862553830733605 0.0
51 1 10.935086187148777 10.440121716674957 0.0 -0.08903178176349359 0.1992656293015373 0.0
52 2 4.524096169765299 12.241675891309278 0.0 -0.024426233716823478 -0.03278600242398013 0.0
53 2 13.452721815877757 13.192472997714544 0.0 -0.027022466676643223 0.03576793950568595 0.0
54 1 9.360132457031593 0.19281403526483676 0.0 0.10836100632015686 0.09384766269916066 0.0
55 1 2.966628665690076 2.3636081524895944 0.0 0.13324224476837848 -0.036052383077390025 0.0
56 1 16.70459521452888 15.659269662896374 0.0 -0.028387306426786114 -0.02455404733567036 0.0
57 1 18.57078885856833 14.526642900956865 0.0 0.0009587762948505594 -0.012423487930597969 0.0
58 2 16.53783350264471 14.571713454753555 0.0 0.11290950527778539 -0.07417025122010446 0.0
59 2 1.099442804750497 15.3997617986981 0.0 0.017485529080750847 -0.015611368794882369 0.0
60 1 6.032232369166267 1.2227640345449582 0.0 0.07061916914092843 -0.0004138934198320355 0.0
61 2 19.485499586799065 9.083297866491424 0.0 0.10323474590767506 -0.09644028967846513 0.0
62 1 5.789698237674594 0.6121819782604189 0.0 -0.06720760533192625 0.09899089705529793 0.0
63 1 9.920205208447882 0.5502783059181027 0.0 0.002939882722259279 0.10019340503030263 0.0
64 2 3.7395735398200216 1.5343946353501197 0.0 -0.02795949503906695 0.04275255512937815 0.0
65 1 4.0286493980974925 6.032880128136316 0.0 0.11465297217916583 0.04707137063188063 0.0
66 2 14.714168895813607 10.161255438925481 0.0 -0.030130482536360484 0.10534596095328365 0.0
67 1 0.5563873013624414 18.888890664155905 0.0 0.07545766095012581 0.1107580809677306 0.0
68 2 7.5532006496071435 6.128002251599158 0.0 -0.008287021388435564 -0.04542347051786508 0.0
69 2 17.12793269315335 9.908582591799767 0.0 -0.04906909684691639 0.05861733694126293 0.0
70 1 14.006419583200197 3.273260309604212 0.0 -0.08921081718400538 -0.05403662662917946 0.0
71 1 16.848780469464998 12.32942875026637 0.0 -0.12653971888090745 -0.03276902866791975 0.0
72 1 9.975932294857742 16.897288382484177 0.0 -0.07634553706479784 -0.057204141340452194 0.0
73 1 19.261188908912917 14.73323816142353 0.0 0.1557051350486987 0.030251309783923805 0.0
74 1 15.565145810160194 17.08711722040388 0.0 0.06953846886206401 0.0745028340142079 0.0
75 2 13.677095976722669 1.6266673153568563 0.0 -0.07068728481647463 -0.06001795003385658 0.0
76 1 12.17272157883211 2.193316817910757 0.0 0.03822039439070738 -0.11812124184716544 0.0
77 1 10.475459731507685 10.906193250001497 0.0 -0.015173291273013348 0.12994436786939675 0.0
78 2 4.933672272618105 17.900904093424046 0.0 0.015334089526286147 0.0183424790222178 0.0
79 1 9.813213913866758 3.366366588991053 0.0 -0.002827767218669488 0.06228873883354018 0.0
80 2 12.857763622793572 0.5796449177444839 0.0 0.0022483079812407147 0.1382060973196587 0.0
81 1 9.77009383744458 13.512887881111254 0.0 0.06263817907694262 0.08058230061642414 0.0
82 2 9.345401229201384 7.22077264736301 0.0 0.009130872580108397 -0.017258813899811567 0.0
83 1 5.235563704922066 16.246260670151546 0.0 0.037087523004818525 0.039743177682486405 0.0
84 2 19.08210032253686 5.77167577596969 0.0 -0.0735960662285464 0.03331341235443965 0.0
85 1 12.844437979793547 2.3429905112378235 0.0 -0.0027311820442247254 0.10719469100570123 0.0
86 1 7.677752724014612 12.668940338075304 0.0 -0.14859693097002383 0.08058340641872834 0.0
87 1 2.683367810064039 1.7390277288343803 0.0 -0.16698413282667224 -0.13109317401851792 0.0
88 2 12.110593013693927 15.399561864760877 0.0 0.010096070230288048 0.00745476046834024 0.0
89 1 14.766071569766243 1.4966740595146173 0.0 0.011048197751082676 -0.012913124155019629 0.0
90 2 15.32994745837086 14.15188748164363 0.0 -0.007182178467288412 -0.015927596801582875 0.0
91 2 4.905434605397002 11.086631999597847 0.0 0.03321365117778799 -0.09058297984727866 0.0
92 1 2.9418525587901705 5.290098625434461 0.0 -0.08951305279082149 0.03531478011459527 0.0
93 1 18.14493224296826 19.190461611592745 0.0 0.0704732581385332 0.047714903652371514 0.0
94 1 15.278309902680025 3.1660984139065786 0.0 -0.021123418352688408 0.020883119118476477 0.0
95 2 8.708610643465773 2.5899044691144395 0.0 -0.0090694480488827 -0.08970421119232573 0.0
96 2 8.085226956003325 7.317379751506661 0.0 -0.05063180586583606 0.1383756750983327 0.0
97 1 9.64209644095519 4.022156034397983 0.0 -0.14217745892539427 -0.03653635741421552 0.0
98 2 1.7842171582830402 17.631162663525462 0.0 -0.054783343687011224 -0.026677945785524477 0.0
99 1 7.350956142072146 15.603662642230107 0.0 -0.1271527843742804 -0.08878411488515259 0.0
100 1 9.316571081321698 11.541656765470977 0.0 -0.02419727681048122 -0.07714813894374846 0.0
101 1 5.1773104850201594 0.8209694873085188 0.0 0.06251333538176328 0.04222190958393931 0.0
102 1 0.8656173490797288 12.241385988183323 0.0 0.1521631337824753 -0.016182271958308667 0.0
103 1 1.7638369878275972 13.801233324569806 0.0 0.13973398303665693 -0.02022336624373181 0.0
104 2 15.775697949497191 6.530791205522976 0.0 0.03880176407849132 0.005637725797913213 0.0
105 1 5.82268078586053 18.546025525122623 0.0 0.12401628497789023 0.16720350252435992 0.0
106 1 7.226788678986912 1.6598118645274818 0.0 0.17210588365334334 -0.008613975388273144 0.0
107 1 14.635935998302626 18.051793228250062 0.0 -0.08454361896883125 -0.0771236709240634 0.0
108 2 2.066977587954434 16.235354867190154 0.0 0.03872652837056948 -0.058070469447822626 0.0
109 1 2.297212387206568 2.289392697940409 0.0 -0.0009736795530741292 -0.03510692791066151 0.0
110 2 19.59449580825173 4.63003218224503 0.0 0.05420907025141012 -0.048260733300706675 0.0
111 1 17.16949885943729 16.181716690176312 0.0 0.03644734586062212 0.032813531382125 0.0
112 1 17.552137496702596 14.089202418552505 0.0 -0.025227869324615414 -0.07890519580363682 0.0
113 1 0.6418001905787288 14.3928102572953 0.0 0.07041639412398375 -0.031903402089750746 0.0
114 1 1.276107888703801 11.696862088324478 0.0 -0.03538844553874597 0.03639507802480693 0.0
115 1 19.17195610023479 18.282448583462894 0.0 -0.01815506314424385 0.11233759957828224 0.0
116 2 6.252142517567762 2.2940921993293424 0.0 -0.013897119166635462 -0.03754233710512874 0.0
117 2 2.8722094222291785 18.48242701061038 0.0 0.020648339616394378 -0.026576082718923005 0.0
118 1 18.778000080086823 15.185634614359671 0.0 -0.001658515058042462 -0.06016769888862651 0.0
119 1 0.052614841994054175 1.260875389101103 0.0 -0.1159225782879792 -0.07120091780353369 0.0
120 2 17.913264122522172 6.226395634230275 0.0 0.06838122064055382 -0.0036513032921671037 0.0
121 2 1.2513876049695896 2.5361101902931473 0.0 -0.061406015529091314 -0.09891457388805734 0.0
122 1 15.557985685470035 12.126103491241913 0.0 0.09667687756174369 0.10258039248585481 0.0
123 2 9.908033729798188 2.271756246208096 0.0 -0.02401360195085104 0.06212167008769894 0.0
124 2 11.693401592998178 1.1151032192894228 0.0 0.008219559444357117 0.031833031899768126 0.0
125 2 4.097659089569647 13.451369004504846 0.0 0.06343296931130454 -0.08978106465912306 0.0
126 2 6.333112327664116 5.868199479030613 0.0 -0.015161395102502563 -0.018354781894115543 0.0
127 2 11.314899310574559 18.421051549455964 0.0 0.08442886719606188 -0.04083322355805837 0.0
128 2 14.362690726105432 15.04215164583097 0.0 -0.07218490382729721 -0.052267100083779994 0.0
129 2 2.782586509614818 4.092647142380454 0.0 0.04735595626887784 0.04336535431576047 0.0
130 1 16.226010085926298 16.90727536472637 0.0 -0.09864979277219853 0.19491588908080984 0.0
131 1 13.693079602655404 15.897182193801058 0.0 0.018772504436042357 0.027024384632040113 0.0
132 1 11.01124943456088 9.792220056774099 0.0 0.01074245233117753 -0.0749076636448339 0.0
133 2 8.930832670529176 18.237722788747185 0.0 0.027798757708928933 -0.07913139197491327 0.0
134 2 8.70402227411028 13.156661241357783 0.0 -0.0022288972051011206 -0.07745866359411765 0.0
135 2 16.358825328181737 3.2481403490032816 0.0 -0.07443400369430349 -0.015495111500865152 0.0
136 1 2.5755686602107524 5.85363551192994 0.0 0.03616840293086672 0.046563112616990567 0.0
137 2 7.01889955747824 17.345515727810895 0.0 -0.09629817189925084 0.012319473065729072 0.0
138 1 15.92297307858699 2.250348966152315 0.0 -0.020606239512276237 0.06366169580046087 0.0
139 1 10.985231233983722 2.6030856916964056 0.0 0.023310379111675026 0.24217250179041241 0.0
140 2 5.402275123624816 13.19829254594747 0.0 0.008850758745665505 -0.00574910637969329 0.0
141 2 14.883952692617195 8.915348372731057 0.0 0.0026624381547943185 -0.05529078972702156 0.0
142 2 5.0520284904490165 5.541467721912557 0.0 -0.0070105972606521695 0.027988616617129577 0.0
143 1 11.74102890220981 2.7860082149714507 0.0 -0.14514877270418527 -0.05408045450789427 0.0
144 1 17.536505352637686 16.771870537816 0.0 -0.00358942833423899 0.03427313688438717 0.0
145 1 12.854257557492739 7.914063293720255 0.0 0.0007306570036502041 -0.05899416528742471 0.0
146 2 12.360403795074037 5.695424742639914 0.0 -0.03580962180410908 -0.005307242989256311 0.0
147 2 13.93691102716956 8.013895273043456 0.0 0.05200529244318863 0.03287880711070482 0.0
148 2 9.515607467202791 15.180920686949639 0.0 0.035133586923196174 0.003472052451392653 0.0
149 2 17.047851139773105 2.147024208147201 0.0 -0.004186033834267081 0.00402758705916872 0.0
150 2 14.529107554255276 19.106972550015566 0.0 0.038179623216664425 0.022533033725642013 0.0
151 2 10.836906272701425 13.20096300008268 0.0 -6.972486166529967e-5 0.06708816096747021 0.0
152 1 17.40591419308575 18.05906078492112 0.0 0.03333891617851116 0.05004152731696364 0.0
153 2 12.928096703754921 6.81588942039719 0.0 0.08228795033434458 0.1189825269369683 0.0
154 2 6.700794727147537 0.05394170173853971 0.0 0.07858590921871086 0.048951805173639035 0.0
155 1 10.99839638713695 3.822024095472233 0.0 0.014866013705220145 0.11761619156835884 0.0
156 1 12.513748624319685 16.43924441567326 0.0 0.04415006319131363 0.12682892914599234 0.0
157 2 19.676579598184766 15.875931971725233 0.0 -0.05553736889282414 -0.013435951348067843 0.0
158 2 2.368423990741328 6.920098298926161 0.0 0.01583464884917414 -0.02577063553066931 0.0
159 1 12.606736070976977 1.6885268078185713 0.0 0.1309388052709442 0.004189483576420664 0.0
160 1 10.098282186934805 5.1558909534877335 0.0 0.05211980441363284 -0.1278268158681301 0.0
161 2 18.381853261200106 2.2962817404267053 0.0 0.04392700849904707 -0.04074536855031911 0.0
162 1 7.726731211110407 19.36010307541367 0.0 -0.0019858515633232525 0.07316131280630987 0.0
163 2 16.43601150936286 7.757236130513329 0.0 -0.03653127263204193 -0.028262838286114512 0.0
164 1 8.88516290529735 10.220205473060522 0.0 0.15009218097357385 0.013368761638267924 0.0
165 2 11.837390563085503 9.110321860574905 0.0 0.04482310796023102 -0.10479115497881653 0.0
166 1 5.422231131438935 1.5431448083086245 0.0 0.034985160474019214 -0.03482597701058808 0.0
167 2 4.433799095889122 15.511856525986918 0.0 -0.002111660996293523 -0.07097532684224975 0.0
168 1 9.765202401484444 12.838201394388497 0.0 0.08693457879462069 0.05414348094717869 0.0
169 1 3.7724755172496254 11.29488775865112 0.0 0.19725830829643257 -0.03642386318313854 0.0
170 1 11.26120572241857 16.132184291434182 0.0 -0.08888490142830392 -0.01926324028129518 0.0
171 1 18.534488866507314 8.27357781395142 0.0 0.08639086691465343 -0.04305893534214054 0.0
172 1 0.21228986012268214 12.328643203702496 0.0 0.05433300228715526 0.014350040947681454 0.0
173 2 11.457573098548805 19.67587928918557 0.0 -0.01555493341482445 -0.036905512918474354 0.0
174 1 17.706645675689778 0.09153606765624892 0.0 0.04101220320260884 -0.07243679538549148 0.0
175 2 19.245193194880923 10.328048144648537 0.0 0.03160134783322407 0.050235254483366555 0.0
176 2 10.745642432580572 15.146398921306854 0.0 0.008909596162254155 0.03839443127245217 0.0
177 1 16.44854995116608 16.274446677473666 0.0 0.025076435867877372 0.014210204913528491 0.0
178 1 18.74654265039293 0.6293202549532441 0.0 0.07461587611347853 0.014950678433145698 0.0
179 2 3.930882913904006 4.920873870985274 0.0 -0.04108882611202127 -0.010040909132002245 0.0
180 2 17.680576876264496 15.17350364301634 0.0 -0.02237555540923368 -0.056368741806222214 0.0
181 1 8.618320972422369 6.349598830961877 0.0 -0.01545718926702003 0.1598704861906902 0.0
182 2 6.6028934904417556 12.923011176417642 0.0 0.10828369228434714 -0.02880314445517748 0.0
183 1 15.372944289096028 1.8219851937504243 0.0 0.06209467790318797 -0.08626985290724702 0.0
184 1 2.4485707460091946 0.46864503219940995 0.0 0.007550947638507083 0.011845828936819083 0.0
185 1 17.157788123108975 5.449723835744042 0.0 0.07349990367621567 -0.024532445719438564 0.0
186 1 7.46068205403771 16.29356584809595 0.0 -0.019719294227763622 0.21676502474246784 0.0
187 1 11.849152023320773 16.480469956516355 0.0 -0.0836958729506456 -0.014954859213437964 0.0
188 1 1.8446007417397856 0.18783081616773947 0.0 -0.11550034585866387 -0.03682312157215832 0.0
189 2 14.78344255682525 12.94453916933744 0.0 -0.05129695609277619 0.016360654059822753 0.0
190 1 0.4118796417773168 5.661620386308003 0.0 -0.10847312978464675 -0.050319113457296435 0.0
191 2 14.848217661001318 5.547931177255213 0.0 -0.10802545438545484 0.006971065069216769 0.0
192 2 12.928090622402728 14.338121853292618 0.0 0.01834986133119386 0.04434377472191514 0.0
193 1 7.369684876022835 8.198792293139794 0.0 -0.04691831037554071 -0.018778518501047572 0.0
194 1 14.673880665938544 2.1597154896872404 0.0 0.17187483036967371 -0.03388142978485626 0.0
195 2 8.425702379600256 14.554678313487166 0.0 0.024726701542575173 0.0063303174028748604 0.0
196 1 18.441307626502944 1.2237343059622925 0.0 0.10665592151986378 0.005076152257000089 0.0
197 1 12.816032173893387 12.306991461044525 0.0 -0.029330753226079472 -0.053817592552002046 0.0
198 2 0.9304773376183486 16.712413855645863 0.0 -0.004717533160079768 -0.0026914004101263526 0.0
199 2 2.4669312991202283 9.26101880124205 0.0 -0.13032189548072023 -0.09765127820366104 0.0
200 1 16.887213869022343 6.727051514161753 0.0 0.07588138544318107 0.010840554432752943 0.0
201 2 13.58286928195744 10.817324278378047 0.0 0.0015920981551925289 -0.029367165125439413 0.0
202 2 8.157055687731448 11.049062686610666 0.0 0.01693495451107711 -0.0037230046079430434 0.0
203 2 16.058903988564023 5.284960627829652 0.0 0.028880194011545082 0.0754181143369036 0.0
204 1 4.8797547336135505 4.392704962890345 0.0 0.008521207091330129 0.03444862288034538 0.0
205 2 2.823178504441323 13.479104598535644 0.0 -0.051928487686215954 0.05138864056553878 0.0
206 1 1.863419265743236 3.4502260524317396 0.0 0.00756512879766525 0.01963621266272228 0.0
207 1 15.14939931236544 17.607098786031216 0.0 0.04690142333824172 -0.09877147232735015 0.0
208 2 5.585605085800086 6.867850811111165 0.0 0.0183717539422682 -0.05553347576462909 0.0
209 1 14.647821980855912 3.4948149837067253 0.0 -0.044629684264126834 -0.029227931534819944 0.0
210 1 9.836252128237103 11.088268507557377 0.0 -0.028653258234362298 0.032023736882130234 0.0
211 1 10.784981412070325 5.102281290575393 0.0 -0.08457203820666422 0.0390598830499542 0.0
212 1 9.029444255695497 4.279643992452012 0.0 0.011840005016633764 0.1707622133040964 0.0
213 2 18.15717740650799 4.8521788855386925 0.0 -0.10029553844259621 -0.033891017365999275 0.0
214 1 1.7046548982043488 11.183857982735196 0.0 -0.09140920095918782 0.06213977663753997 0.0
215 1 2.216468170668257 11.603247497209193 0.0 -0.10940100444492849 -0.05460744359511934 0.0
216 1 8.68318125692103 8.84505487475019 0.0 0.00039943628758459587 -0.03817254618579592 0.0
217 1 9.124954007443264 19.32132676172931 0.0 -0.05895539167346431 -0.043637519382028936 0.0
218 1 10.751373729336466 4.436706435364953 0.0 -0.06213199887361672 -0.0482766780820015 0.0
219 1 13.437643831049035 2.7132178430841205 0.0 0.018151491214428234 0.007517440772476111 0.0
220 1 5.105362604150964 8.760282610849147 0.0 0.0024398998445616534 0.05361001376337602 0.0
221 2 12.631404543582267 10.045893517249533 0.0 -0.11049176810178801 -0.019654949898356117 0.0
222 2 6.683107813930003 3.6600289156056998 0.0 0.054226105836439706 -0.008097081906530811 0.0
223 1 6.054447673196286 17.922150221973055 0.0 0.11174627279578019 -0.025345428112000676 0.0
224 1 14.242789850989624 13.948959956521445 0.0 0.026695736391317147 0.017054703982516815 0.0
225 1 17.165127497744013 12.937259333556813 0.0 -0.06058434364092606 -0.02715104274927583 0.0
226 1 11.510467317745125 2.1926814030177164 0.0 0.10516988045582257 0.006216308436300964 0.0
227 1 11.142521941973568 11.07650577123761 0.0 -0.0645160017641634 -0.048998841694633304 0.0
228 1 12.398387592829385 2.839477636769272 0.0 -0.02813680149971548 0.030460929069492815 0.0
229 2 13.881237221763786 12.040496820752965 0.0 0.002021808246274799 -0.05172378856305025 0.0
230 1 10.72423370455621 9.183130806392548 0.0 0.006995618630903939 -0.05467294587543987 0.0
231 1 10.920515463751533 1.9109090132927276 0.0 0.06896220837447568 -0.00705607569561092 0.0
232 2 0.7260514488710041 0.3328384893026374 0.0 -0.04497486477256062 0.015480662258694409 0.0
233 2 3.5283689740482433 14.586579132001507 0.0 0.022997451654901226 0.044145835648041615 0.0
234 1 0.2570587929953069 11.09708742076628 0.0 0.13793088576836027 0.04226344074023519 0.0
235 1 19.44935671376522 13.502284011057357 0.0 0.08915887252638895 0.1925642755322091 0.0
236 1 3.910502036123047 10.609036460956146 0.0 -0.009652377105035349 0.14691110353127057 0.0
237 2 7.237655033502608 4.8609926627436755 0.0 -0.001619545325315943 0.08353426743858812 0.0
238 2 4.24294932909453 16.793332119730096 0.0 0.002571557573229129 -0.03992947550120147 0.0
239 1 5.375998491428653 16.885027838853734 0.0 -0.028955861643835654 -0.006304366668591953 0.0
240 1 14.10011035071589 2.60436679435618 0.0 0.0437278720986197 0.21158750665841008 0.0
241 1 2.8747838436589777 11.679345613160038 0.0 -0.2076031207803165 -0.15215759094653428 0.0
242 2 14.272680039371696 6.751758609782965 0.0 0.019500246531502546 -0.008544303857798658 0.0
243 1 0.7354356441717492 18.066412664982266 0.0 -0.0030127827754269955 0.047137152334159105 0.0
244 2 1.904961151614842 4.964884714435127 0.0 -0.07462731360141976 -0.014145606830201869 0.0
245 2 15.951629238582946 10.35559644787768 0.0 -0.04382047380478489 -0.025144693030762257 0.0
246 2 16.295624247100015 17.96507040013679 0.0 0.010145752022027596 -0.020945721540183666 0.0
247 1 18.246818946304366 13.114564065026181 0.0 -0.15921470284969516 0.08394987000301748 0.0
248 2 9.75856955573353 8.648527712267065 0.0 -0.0101922601488391 -0.03321145364771642 0.0
249 2 17.36772448358409 8.659621124920431 0.0 0.007024316720213001 0.05656367745950039 0.0
250 2 6.33376331946844 14.207914741684064 0.0 0.0559964189856447 0.001504242586851776 0.0
251 1 18.22218764783532 13.902539305485067 0.0 0.0016835795820495248 -0.2046863113157185 0.0
252 2 4.081711601346384 18.883417814804186 0.0 0.021210419786101983 -0.03300798958453705 0.0
253 1 1.3944004449049199 9.00570544101497 0.0 0.1327586899876698 -0.13224399068025103 0.0
254 1 10.32658139796772 3.849637453512502 0.0 0.053430719394595025 -0.03126932156095738 0.0
255 1 10.569781370397575 3.208198411931033 0.0 0.008700757728365696 0.0014216122147683915 0.0
256 2 7.218003140000754 9.884539915603177 0.0 -0.040156110224110385 -0.05093149196292879 0.0
257 1 10.870899602889018 8.532725033502157 0.0 0.016391404180409772 0.024603727271801906 0.0
258 2 6.158403220762231 10.684483085827399 0.0 0.031377689199622805 0.09076029645766737 0.0
259 2 10.124662822132633 18.021157180329737 0.0 0.02136627107598754 0.028077402131760125 0.0
260 2 6.361593962195909 16.284837302024116 0.0 -0.02144414855047458 -0.0015264659646988155 0.0
261 2 14.688205729263812 16.35027773558851 0.0 0.0347099951588482 0.04455786996660884 0.0
262 1 2.3403524557362885 2.972720928552586 0.0 0.1856747390015852 0.0639859403079525 0.0
263 2 15.167468433397342 7.674815446452046 0.0 -0.07156099353730791 0.07753298741091735 0.0
264 2 12.497724897716047 18.93677260480873 0.0 -0.07864378337751736 0.029853743969524938 0.0
265 1 9.368032199289006 17.206743940433775 0.0 -0.04990952207278875 0.019876948714701873 0.0
266 2 8.275982437626725 17.07723889406264 0.0 0.06897743420102945 -0.032501738368260466 0.0
267 2 6.89891333937729 18.608881963031 0.0 0.060140108302701056 0.04482083680808819 0.0
268 1 10.606832351294235 0.6464820220595867 0.0 -0.10914845571149347 0.08267593593994342 0.0
269 2 7.520109445928396 13.761377140787676 0.0 -0.003060066066948201 0.006276667737408083 0.0
270 2 1.8543954812457357 12.66646921182147 0.0 -0.02967062339876964 0.0023792266157264723 0.0
271 2 1.4205722028845664 6.101651067196625 0.0 0.011662179143084957 -0.04589284891909196 0.0
272 1 9.290126351596362 16.53277721204846 0.0 0.011179356999578642 -0.0764812173520892 0.0
273 2 11.753139872693657 11.984089663777906 0.0 0.019821206583174482 -0.00783771568230095 0.0
274 2 15.751366353363103 19.240686285856537 0.0 0.110451902461794 -0.05773472526864678 0.0
275 1 12.421049417961695 11.105003163704296 0.0 0.11786806641743827 -0.022368879142118072 0.0
276 1 3.4865898283068293 11.911215656692699 0.0 -0.06768732759618878 -0.0501503631444233 0.0
277 1 10.635677579423302 1.3179204477732878 0.0 -0.022109538039472007 0.054851128151769526 0.0
278 2 18.101098443103304 10.782217970481117 0.0 0.00238110800392779 0.12710880815664424 0.0
279 1 14.487922142347713 17.414507365526315 0.0 0.014214320934366313 0.09074381825692425 0.0
280 2 19.343954283750385 19.392561232339744 0.0 -0.0030780281585555624 -0.045836589952527096 0.0
281 2 2.010639796673598 8.093731512933157 0.0 0.03328853239192378 -0.029330878576429294 0.0
282 1 0.5725642353109974 10.524421641413946 0.0 0.014026559325390455 -0.05119924718418098 0.0
283 2 4.661738615704733 7.7228315411093735 0.0 0.022430783052872775 -0.05841962759509544 0.0
284 2 1.6244985013405433 18.87015207660832 0.0 -0.008782761137619522 0.008560811785757181 0.0
285 2 5.22504804497273 19.449793640227124 0.0 0.05928466517562952 0.03111156032674595 0.0
286 2 10.26379883985591 19.294354520281477 0.0 -0.05393006460714819 -0.10635645681281221 0.0
287 1 2.5194811764903258 19.55419912126667 0.0 -0.019678920210633413 -0.00942058494974348 0.0
288 1 15.302087486242097 2.4919220472485715 0.0 -0.0186400426527878 0.07406446714721986 0.0
289 1 7.846255844919583 18.07293345017712 0.0 0.003412632425137653 0.004633236216462772 0.0
290 1 8.139845373210047 8.426259082835958 0.0 -0.06854929407940587 -0.00889086348291283 0.0
291 1 3.044132334288484 3.0229647428735036 0.0 0.1400198047941432 -0.05466710438083036 0.0
292 2 12.197403310244713 13.194158993619608 0.0 -0.05516934102020564 0.047014130517372944 0.0
293 1 0.5349193763954729 11.683713891581819 0.0 -0.019367855758844824 -0.08783471961951658 0.0
294 1 16.08476470406162 1.6065931719721727 0.0 -0.05264147120903122 0.007443650787520425 0.0
295 1 15.760232132483663 16.44775720766188 0.0 -0.04271839496048305 0.015758065285752135 0.0
296 1 11.267728627689355 3.233315783928156 0.0 -0.061859131901198065 -0.059488385989814735 0.0
297 1 12.962286846913974 4.790015907306922 0.0 0.025071065866442747 -0.0834829264441117 0.0
298 1 0.10665002582524855 18.374191405704433 0.0 -0.07420568292506578 0.031686742596121004 0.0
299 2 11.035814963296918 17.21137071811279 0.0 -0.006577169895269539 0.01868776811616634 0.0
300 2 18.36357132500273 17.512214476303146 0.0 -0.07199726568587075 0.02907577069722923 0.0
301 2 18.855313727729786 7.042458529402965 0.0 0.06947069826541807 -0.03191024251726378 0.0
302 2 7.462988731354275 2.7264986437216607 0.0 0.02340203059529147 0.03584480008814895 0.0
303 2 17.703088700602144 7.48629439652007 0.0 0.04526193325550854 0.07110232838148971 0.0
304 2 6.844057356589912 7.188424120413136 0.0 -0.05295494446979472 0.013815053507344632 0.0
305 2 0.748400362080707 13.32052656971015 0.0 0.03969121814284309 -0.0037185343713289336 0.0
306 2 5.4368516957174196 3.43667444878894 0.0 0.03934043218633745 0.030855643103172972 0.0
307 2 13.602837003753583 5.6695989527458055 0.0 0.08872494214243186 0.08520323758175812 0.0
308 1 4.430225629486514 8.79822686475042 0.0 -0.08662949321621308 -0.15064439965995272 0.0
309 2 5.945354917019823 4.663696162968273 0.0 -0.059937691371002494 0.013664829752293417 0.0
310 1 3.2987553269961376 5.922757359551468 0.0 0.006525058589681152 -0.04911684408016517 0.0
311 2 2.774785210206395 10.606410788378426 0.0 0.03260639287323791 0.014976651301856539 0.0
312 1 6.719345890664854 1.200345245153701 0.0 0.12595551850606526 0.02131613116594527 0.0
313 1 8.423226515550802 19.241174208391747 0.0 0.005064798520063052 0.16084447858837242 0.0
314 2 15.607485614046379 15.394637800444732 0.0 -0.010697774581870803 0.04562814178941652 0.0
315 2 10.361447865998628 6.218399573979436 0.0 0.011078370680019487 -0.003342974982255316 0.0
316 1 0.48917049029587933 9.869550361181826 0.0 -0.027371724137484635 -0.027327291479131474 0.0
317 2 16.05779643636231 13.121715167079286 0.0 -0.03577604816990102 0.017794110844787703 0.0
318 2 0.6212723659316115 8.134467391274983 0.0 0.03104470367017785 -0.016333033628395048 0.0
319 1 12.821419286262024 8.581223424484104 0.0 0.06750071125410871 0.03397780346855679 0.0
320 2 4.883608579375829 14.363491112363377 0.0 0.07879277817317272 0.003544586085284587 0.0
321 1 19.08928190994118 14.089447507977182 0.0 -0.05772369836367958 -0.16443163150624462 0.0
322 1 13.024704140903353 15.999034733720924 0.0 -0.0828014680157193 -0.06930819139247807 0.0
323 1 19.490777863900338 12.799308388866786 0.0 -0.0682945224757759 -0.021485497321689636 0.0