ITEM: TIMESTEP
0
ITEM: NUMBER OF ATOMS
400
ITEM: BOX BOUNDS xy xz yz pp pp pp
0.0 19.7609 0.0
0.0 19.7609 0.0
0.0 10.0 0.0
ITEM: ATOMS id type x y z vx vy vz
1 1 6.4238280798489455 0.29286052487715303 0.0 -0.10261276535650786 -0.024905306600000763 0.0
2 2 2.5732183440595136 17.303665653718546 0.0 -0.033757896279175574 -0.033989231605863854 0.0
3 1 17.489313522657557 1.2679178994367668 0.0 -0.1442460637420881 0.052204011991113616 0.0
4 1 8.590127915145933 10.368136468874935 0.0 -0.05544547620957821 0.13191145491238612 0.0
5 1 8.163153364181303 19.274478878543455 0.0 -0.09291274929769897 -0.06488026353919539 0.0
6 2 19.496980008923213 10.270654232032665 0.0 -0.0013744771843462688 -0.02077090717194212 0.0
7 2 16.39088977021889 0.9250578103446202 0.0 0.07636530669570459 0.07759571709729943 0.0
8 1 15.725736783243612 13.741570453591324 0.0 0.029882082921876715 0.001432099893639386 0.0
9 2 14.020751448017364 16.09945958454918 0.0 -0.003245399786055144 -0.03230012687376165 0.0
10 1 13.832182352918334 5.012638332362217 0.0 -0.003878261102067789 -0.034896848610906604 0.0
11 2 0.982730701268366 10.529235463085437 0.0 0.011541635773269946 -0.03103600767436436 0.0
12 1 13.200815174958056 17.957498238530327 0.0 -0.01666238961776608 0.034151077734676155 0.0
13 2 10.606597771435933 13.936007754229976 0.0 -0.047388480295172314 0.006790213362848818 0.0
14 2 0.2193116894995312 17.711258186038137 0.0 -0.030332666393923114 -0.03310030241836528 0.0
15 2 1.999524357317169 0.9815172092269893 0.0 0.08277658013068423 0.006893083818608311 0.0
16 1 16.33505832210299 5.770031946055595 0.0 -0.020640385967531094 -0.05792069706390359 0.0
17 1 4.090768702187852 2.219684469573219 0.0 -0.07696275990237857 -0.03182105192754148 0.0
18 2 7.246373270592599 13.723426633115851 0.0 0.03315758480742927 -0.028741850427945397 0.0
19 1 8.181847911202343 6.685120080628241 0.0 -0.05713062987236684 -0.08210648100297212 0.0
20 1 12.024817964895439 8.38285293986758 0.0 -0.02254529360962817 0.061355605056780706 0.0
21 1 3.5068795005475457 9.440341265304925 0.0 -0.022913597772137886 0.11582192770051258 0.0
22 2 11.456902994407926 19.030817540178543 0.0 0.04508351996877362 0.032396148611309204 0.0
23 1 8.78262690637413 9.194564403868515 0.0 0.06571847942094526 -0.0006604419912272888 0.0
24 1 15.412565625563337 11.81212804716714 0.0 0.10842587733130984 -0.007006085434585353 0.0
25 1 1.2815583379740065 4.9407706112324785 0.0 -0.06867150547098116 0.10639676120911937 0.0
26 1 7.5002170337036365 12.64549136638276 0.0 0.15980593366019588 -0.056110597282794425 0.0
27 1 8.610451724550781 8.532234002599868 0.0 -0.0953795162370098 -0.10542553384873525 0.0
28 1 0.3212865771374726 16.64514595776958 0.0 0.013031693480061725 -0.024440878762359966 0.0
29 2 1.9305527096555326 7.212684002079687 0.0 0.09155698756681341 -0.023511703872388566 0.0
30 1 15.222162919973782 8.033525419678552 0.0 -0.026241808215727257 -0.061650587930471255 0.0
31 1 1.6893813479463409 3.404329461505125 0.0 -0.018520826550718437 0.03846211768857321 0.0
32 2 16.0681529206963 2.257266758918266 0.0 -0.057042243405163694 -0.004798852274392152 0.0
33 1 12.395223243287703 18.45426170467237 0.0 -0.06018205666050064 0.02260901047054697 0.0
34 1 7.4557455788022935 11.97611819747876 0.0 0.03793226095704828 -0.08029943874943625 0.0
35 1 7.977027942271905 17.659621197754607 0.0 0.03222936881936013 -0.03266485472677051 0.0
36 2 0.9259280912880253 13.923311429270385 0.0 0.04914493162248948 0.07496384450573178 0.0
37 1 6.402100065166904 5.876452920479577 0.0 -0.08523511114171713 0.2287495981169967 0.0
38 2 7.941826520478156 4.312249787637551 0.0 -0.06772763026285758 -0.035070348208192006 0.0
39 2 0.08775625839519903 11.595539749515426 0.0 -0.09139589158554946 0.028132544244023016 0.0
40 1 11.417947836326187 8.658731788955908 0.0 -0.052219812769262054 -0.032217666777892666 0.0
41 2 13.49673185526729 19.69287933894017 0.0 -0.023239935034329893 0.08598963517392948 0.0
42 1 8.454585714612168 0.11724825133439118 0.0 0.02741640717682506 -0.019532011744351145 0.0
43 1 15.84196776648011 7.656604293724632 0.0 -0.036973978452998435 0.11389530463744518 0.0
44 2 9.461367746309126 1.404932641782551 0.0 -0.020133557497145915 -0.042597627873878025 0.0
45 1 18.797175065649842 5.792938156188506 0.0 -0.06260109386421561 0.0677921123321399 0.0
46 1 2.3602309906861616 3.6228166893173253 0.0 -0.07200305653945172 -0.0188706743485933 0.0
47 2 10.590197509520785 10.072989065536362 0.0 0.057295487712583706 -0.07720950396962846 0.0
48 2 0.6136780151460639 7.177818434996611 0.0 0.1134423314136478 0.05902806700977358 0.0
49 1 10.83408426328722 8.30847659215471 0.0 0.03362233507923445 0.037973522418285284 0.0
50 2 3.8715630412114437 8.398723841247183 0.0 0.057251063814845814 0.07973420742671256 0.0
51 1 1.8307220378546185 4.048124829761277 0.0 -0.01023532244024925 0.04930345337290076 0.0
52 2 1.0881010327167786 0.01295909684367482 0.0 0.03318773629316633 -0.02327235783136331 0.0
53 2 6.961815213431888 14.973458126756876 0.0 0.024976583762718108 0.026024353091445632 0.0
54 1 19.068942480725955 13.320087849882048 0.0 -0.06541947967290547 -0.010558249495831364 0.0
55 1 1.7879716857612218 15.46704676096551 0.0 -0.167691524912407 -0.020506907338574024 0.0
56 1 2.6704740448207387 18.396176536324386 0.0 -0.02730107216670159 0.17997555808883353 0.0
57 1 19.55904933251123 3.459699211053262 0.0 0.05084827280845952 0.03350989515273129 0.0
58 2 7.47362178245984 0.6671811499727887 0.0 -0.028768357869419975 0.02543575347781562 0.0
59 2 11.944590811170126 1.9620059495884807 0.0 -0.0777667017060979 0.10858363040038756 0.0
60 1 17.410652055899856 12.402487842265018 0.0 0.059727077768130625 -0.05799221810873755 0.0
61 2 15.123321400137224 12.859970971043502 0.0 -0.06735217740043864 -0.05344961329987832 0.0
62 1 11.992130997395842 9.052853406574938 0.0 0.05827611762281284 -0.012043188464769997 0.0
63 1 7.577036418821688 18.191841922254145 0.0 0.06069830389188169 0.07178647962859803 0.0
64 2 17.64901146420915 0.23290169494135218 0.0 -0.11877175966038864 0.10607092438598512 0.0
65 1 13.684820234706303 2.2767988046414636 0.0 -0.09529020423936538 -0.010628162888092475 0.0
66 2 9.171699986343228 4.079513407199848 0.0 -0.05172102753108629 0.09107130739831718 0.0
67 1 13.05538481858249 18.617176862063825 0.0 -0.016789949718931003 -0.10226227946561779 0.0
68 2 0.5340114307131955 9.28153581235519 0.0 0.09943377404413789 -0.042044157368123405 0.0
69 2 3.2454646882978553 2.944537805783382 0.0 -0.039140731566020034 0.004460938005064619 0.0
70 1 8.54879486809372 0.7878074434526142 0.0 0.15310501074824226 -0.02058426251780401 0.0
71 1 10.355448593286125 18.92243642405031 0.0 -0.06724484552416347 -0.0712424757382413 0.0
72 1 4.468724266471811 10.95692962801876 0.0 0.027248466931492958 0.10996399321544771 0.0
73 1 17.3105441708108 15.140306560271858 0.0 0.0526102608440351 0.0565805279928362 0.0
74 1 3.3090836998761257 10.859334241316176 0.0 0.09229789352585699 -0.08077909165413316 0.0
75 2 14.158364944636308 7.600777584394035 0.0 -0.04995120574843212 0.09671742651707176 0.0
76 1 17.05632861674858 1.769224372968545 0.0 0.07602932852351742 0.01623303225016678 0.0
77 1 9.268654405208853 11.869658309428866 0.0 0.10362540052410417 -0.09879076365991984 0.0
78 2 19.58039839591886 15.675232701729254 0.0 -0.0007097291007269385 -0.09782472557261104 0.0
79 1 1.4794292185070634 16.04376539769035 0.0 -0.011542950771602988 -0.08716384856711268 0.0
80 2 11.518041455870884 7.429803387659306 0.0 0.04974035400339952 -0.045507786959692195 0.0
81 1 6.513804522553398 12.91597877599228 0.0 0.06435353196866048 -0.09728298549140914 0.0
82 2 14.859018688147549 15.188446550889164 0.0 0.07586068829525587 -0.007135563100176877 0.0
83 1 3.8183031228823134 11.292669242068891 0.0 0.07404140688159512 -0.023824379611080516 0.0
84 2 13.625735138552846 9.91775098539063 0.0 -0.05192126111441811 -0.019592810514809055 0.0
85 1 12.576604410775733 19.089555371895052 0.0 -0.015052210324390516 0.01395510916782333 0.0
86 1 13.910022368625302 5.677907555681092 0.0 -0.0009493366086866486 0.024148855153381974 0.0
87 1 0.19973609401888268 8.194498871485369 0.0 -0.008106910549432151 0.05667572877749257 0.0
88 2 1.3808568783928206 6.0350553518676735 0.0 0.05754719660570593 -0.015884857970874793 0.0
89 1 1.1481969786207522 1.7224712405014677 0.0 0.021306813394973995 -0.010551091810119703 0.0
90 2 6.48567975729631 18.062320932415407 0.0 -0.06368624827547405 -0.021761120145765138 0.0
91 2 2.9174646406957256 13.305674634545701 0.0 -0.01834887038639056 -0.0026319887897894197 0.0
92 1 4.870391901541112 8.917117843070148 0.0 0.11066289538568881 0.0330804841187399 0.0
93 1 5.857159947418366 12.9280198326439 0.0 0.029712649302576586 0.15115083236039664 0.0
94 1 4.771695413172225 2.1206147088813716 0.0 0.010272571793267163 0.0032719754230951226 0.0
95 2 13.926275599457863 3.352640905374932 0.0 0.11966513641768271 0.04074124736832469 0.0
96 2 10.671730344998856 1.7171123113342968 0.0 0.0870268175328091 -0.034017811514334514 0.0
97 1 0.8029635805949181 16.177407498525607 0.0 -0.07593021837276333 0.08264786499990108 0.0
98 2 9.557956537328572 10.814248549047127 0.0 -0.05731912622455602 -0.011009235627184926 0.0
99 1 16.848628644822337 8.368270245444183 0.0 -0.07485369752738828 0.047757531265984414 0.0
100 1 18.883445054633462 2.3656541423241864 0.0 0.007594294339895606 0.04851816006296703 0.0
101 1 14.958866915769478 11.338102883319525 0.0 0.019278690322800614 -0.021436174531404804 0.0
102 1 7.64595302833241 5.389970596950834 0.0 0.04189580507313759 -0.101997049060634 0.0
103 1 13.280116447239239 5.397617131059124 0.0 0.012204888655596704 0.014969950632793582 0.0
104 2 3.5591395179213556 5.116280600562867 0.0 -0.020014316148987136 -0.017849303023025575 0.0
105 1 14.1164300655518 12.282886229794656 0.0 -0.016918008096051942 -0.02511344873645939 0.0
106 1 9.027171014013096 9.845007239769032 0.0 -0.002597747022603165 0.11560990673387309 0.0
107 1 7.860132738100595 6.049564382852147 0.0 0.0036804657822720977 -0.07175465302617433 0.0
108 2 8.214495431519762 3.0974186963159442 0.0 0.04145943780022483 -0.018735488719067408 0.0
109 1 8.14054852234035 18.602064089301447 0.0 0.03290709674743637 -0.08050357108962115 0.0
110 2 6.483907517166506 8.509164842815288 0.0 0.0020776023802888326 0.01210626778529549 0.0
111 1 8.386545482313938 9.737167819502043 0.0 -0.03309560269367917 0.08361318065257252 0.0
112 1 3.759945553002445 12.637548505126931 0.0 -0.002558699939721095 0.11896715319692369 0.0
113 1 9.088807049857072 0.39249775739922554 0.0 0.11756606518269366 -0.05471758041918938 0.0
114 1 18.762160063275484 16.389221820783526 0.0 0.003330488093997924 0.014935987063391333 0.0
115 1 16.388697572993017 4.677146238139992 0.0 -0.010427414476730176 -0.06014333104076877 0.0
116 2 17.283617106211917 10.669178144440103 0.0 -0.057138541995106706 0.0691135883668207 0.0
117 2 16.52274969285649 18.226320761113776 0.0 -0.025069603943540564 0.03671853640867104 0.0
118 1 1.8313435862531195 13.317530461879288 0.0 -0.06648884492936945 -0.09914225001909213 0.0
119 1 6.153581178335819 13.518977708875518 0.0 0.08429441778275414 -0.08556657585758232 0.0
120 2 6.349946511259863 1.3904061864013308 0.0 -0.11653497440600566 0.01220048133097319 0.0
121 2 0.027509644162799964 1.7707412754244811 0.0 -0.0028670447102918774 -0.0069476939541096615 0.0
122 1 11.638597436515514 11.80633062260073 0.0 0.002224824129267968 0.04285908204970075 0.0
123 2 4.336581478789818 19.51059286177539 0.0 0.02079974276444212 -0.07506534268920291 0.0
124 2 6.940109149147126 3.3703931768648214 0.0 -0.005393217672590782 -0.07894811138802804 0.0
125 2 0.8894673742859536 12.684426604970499 0.0 -0.020184430250662373 0.04283268574228686 0.0
126 2 12.75322070669533 2.9630930292963673 0.0 -0.04629185132647687 0.02958614634705106 0.0
127 2 3.9816729941264337 6.409058155601724 0.0 0.048280682199667344 -0.014791493743846258 0.0
128 2 9.729767281866506 8.552999740236581 0.0 -0.020129448579016166 0.07545958585872553 0.0
129 2 7.0194587421421195 6.798792173696713 0.0 0.09996223998566472 -0.058937470052260896 0.0
130 1 9.635272009721794 9.630286920520184 0.0 -0.026867259011789702 0.062011755225747006 0.0
131 1 12.97056826574086 15.76849977600147 0.0 0.027632774700733102 -0.1788919376800439 0.0
132 1 3.302572955258898 19.053852623928254 0.0 -0.06240791226701114 -0.1542352335834499 0.0
133 2 1.7684234781432409 9.499208358261937 0.0 0.008718689706813079 -0.024646796554939978 0.0
134 2 11.10993127208534 12.7560352743667 0.0 0.016871587512718382 0.06476007974023813 0.0
135 2 10.501528897735398 11.635145922979891 0.0 -0.017469007163621736 -0.06593355433530951 0.0
136 1 5.255234672998686 1.6541958182517955 0.0 0.010785764315171482 0.02354620470977598 0.0
137 2 11.888091817078505 3.8436007965024506 0.0 -0.008143002482778822 0.03677307473270462 0.0
138 1 9.799217467187173 2.526753746806775 0.0 0.07404725248308786 0.07081767531601564 0.0
139 1 10.906524288203187 6.494357832117902 0.0 0.13956545245317625 -0.14463233963543812 0.0
140 2 17.250594220293674 4.0275091179510865 0.0 -0.04703628371793803 -0.014648008659348172 0.0
141 2 12.367445365884318 6.486083808735768 0.0 -0.012534743457368401 -0.05441488846842921 0.0
142 2 9.344847036145394 14.034367956980171 0.0 -0.028944073587384336 -0.029344052755792858 0.0
143 1 0.8890321922278426 1.1008551007782554 0.0 0.09035266968068197 -0.07505261716824703 0.0
144 1 12.541708221820116 17.809156436064114 0.0 -0.05694519019346269 0.04994306310024036 0.0
145 1 18.42887655292431 5.207803307669848 0.0 0.06335223528502422 0.0790766226002107 0.0
146 2 13.933404199058511 1.1702398102919624 0.0 0.024959923180349446 -0.0029361061198888015 0.0
147 2 19.13262446338581 8.882484025466335 0.0 0.08174334013542235 0.03520720585025417 0.0
148 2 17.18194159385448 6.436919997135893 0.0 0.1155782210695365 -0.007626560761609861 0.0
149 2 15.177891411359859 1.2475829267133203 0.0 0.03521355110523537 0.04212746511777443 0.0
150 2 10.967129255213843 2.9453907373895856 0.0 0.0446254302080919 -0.005633086737048557 0.0
151 2 7.1340263362307175 16.966412312014914 0.0 -0.10104226495742702 -0.04795174965606364 0.0
152 1 6.181060343796128 12.321136435797372 0.0 0.0186338928401265 -0.000666243071183454 0.0
153 2 2.7171329247118283 6.169129159453281 0.0 0.007839721644589272 0.058529886450207506 0.0
154 2 13.616505043702462 14.876631729812415 0.0 -0.04388294328919168 0.09172370299394111 0.0
155 1 8.526659103875282 2.028428565320414 0.0 0.09286132081587833 0.07994415069776062 0.0
156 1 12.555528318167863 10.177248464070214 0.0 -0.10428994633181092 -0.008353507291049273 0.0
157 2 6.307414639435149 10.630197826221275 0.0 0.052472204696280556 -0.06534431476343457 0.0
158 2 0.7236922422002394 4.013691240232625 0.0 -0.014003054325136207 -0.05196508102536229 0.0
159 1 17.72579575734118 15.748045444067092 0.0 -0.16642098771763184 0.07797822143173751 0.0
160 1 11.130283472719299 5.359865357327708 0.0 -0.0039003716326524275 -0.017578556017213448 0.0
161 2 8.00777657364362 15.946080059900483 0.0 0.00031854854048797755 -0.030413293542645683 0.0
162 1 5.17539600975756 16.060834894392322 0.0 0.11622812923726498 0.09487471241910782 0.0
163 2 4.871727119385394 12.563330852767908 0.0 -0.03971386652974163 -0.054684711572267376 0.0
164 1 11.355865873636573 17.163260770179573 0.0 -0.040472430226369364 -0.04246835312256221 0.0
165 2 0.7760071994235493 2.7792590979522687 0.0 0.010531097785481046 -0.017726605900104997 0.0
166 1 11.394557799587671 9.347045543722473 0.0 0.05544936357847001 -0.0014509766211575912 0.0
167 2 18.612671894090525 1.2784468501164465 0.0 0.004593933204138316 -0.0761335188846562 0.0
168 1 4.799936264783831 18.510101381586665 0.0 -0.2063164355185566 -0.031183698677856756 0.0
169 1 16.50638538040704 7.78036006961005 0.0 -0.11871277848900436 0.02654664277032425 0.0
170 1 15.974948950865212 5.218862202124373 0.0 -0.015571974172793513 -0.033416209111981565 0.0
171 1 15.484106141606347 3.938573041159943 0.0 0.005888986775887917 -0.02261938324820571 0.0
172 1 13.372299786169732 6.063626763645512 0.0 0.09631511534878803 0.14162986652667806 0.0
173 2 18.541850119941184 11.127909642969513 0.0 -0.04039903563329397 0.025998886547932618 0.0
174 1 18.223956602491565 2.339885353845711 0.0 -0.048770102716682306 -0.1698595227173101 0.0
175 2 18.811718113881494 18.155069684255732 0.0 -0.013671546800617477 0.17647615627262178 0.0
176 2 14.892581633053732 5.201999535427177 0.0 0.029119486011669537 0.0055907512288806355 0.0
177 1 15.5049183140251 0.21508036315907558 0.0 -0.023640752460396732 -0.08361278204492123 0.0
178 1 14.66934348073888 11.909656628185502 0.0 0.063664163480086 -0.043289399770820185 0.0
179 2 6.287125908436566 16.024492604764788 0.0 -0.05392960472558219 -0.1014448127807874 0.0
180 2 5.727410316338118 3.8653500360871167 0.0 0.004142416805021177 -0.026641999123868818 0.0
181 1 17.726628807552096 1.8961466560058344 0.0 0.00193749241043306 -0.16763615799504017 0.0
182 2 5.914667960633878 7.424637250858544 0.0 -0.006702877281557667 0.06333965286434527 0.0
183 1 15.89437590980275 15.530565061637645 0.0 -0.06923926661449287 -0.1275446907328653 0.0
184 1 3.0805617780675756 15.190101465375237 0.0 -0.14117173441789171 -0.08473817321343201 0.0
185 1 16.270229467083478 3.378545414750348 0.0 0.14349674169938426 -0.10881532731922132 0.0
186 1 19.401999054276082 4.149445235028861 0.0 -0.07273720422843447 -0.09524171318627156 0.0
187 1 19.298061227575214 7.042214121564505 0.0 0.05893005022049224 0.07114149276029252 0.0
188 1 5.530506026221812 9.055590981542684 0.0 0.05064598410456652 0.08443858539703109 0.0
189 2 8.999943797183295 7.505820583098181 0.0 0.04314532003898693 0.04037458347496067 0.0
190 1 17.71659033627205 14.564026328360711 0.0 0.04451890822723106 0.027466549004395383 0.0
191 2 19.47662950584606 14.379767222522869 0.0 -0.012865309284408929 -0.019520006963641562 0.0
192 2 15.350156899501835 18.909720037416736 0.0 0.033714035339566406 0.017663152773069197 0.0
193 1 8.785306395201445 13.060581276526516 0.0 0.06891099814346613 -0.030437439154304757 0.0
194 1 15.483039311486733 8.641238664268096 0.0 -0.09155203415626284 -0.12921247119986978 0.0
195 2 17.593159420043 7.538692577627295 0.0 -0.12673244467161038 0.005533133584917563 0.0
196 1 4.405548293444873 11.598326773772223 0.0 -0.0005935899615695891 -0.10879762152766863 0.0
197 1 15.57878546476661 11.133778652294165 0.0 0.05185609096227728 -0.03238855474030289 0.0
198 2 9.230451870005478 19.07927629740998 0.0 -0.07049960756632481 -0.019488777257888827 0.0
199 2 13.656542560782128 8.71137091669001 0.0 -0.10392464950984096 0.019822648556656514 0.0
200 1 10.239676632384942 3.806991300586795 0.0 0.059413668466912734 0.07537791914865011 0.0
201 2 4.534086605062839 3.215444634346096 0.0 0.028209075129396646 0.01825325838864407 0.0
202 2 5.6275420038924056 17.08090681950254 0.0 -0.04603424853561024 -0.08129976794768154 0.0
203 2 5.327722712143218 6.33452755207217 0.0 0.038868234983735754 0.06661738590765894 0.0
204 1 6.716957686282452 9.604652912364715 0.0 0.15726505467851806 0.015837028237253182 0.0
205 2 1.306797951135746 8.293177478685504 0.0 0.07630126508165345 0.04517744143157403 0.0
206 1 0.6401563182304072 5.108104016870331 0.0 0.06022268854925041 -0.1270899706095002 0.0
207 1 17.049640886116432 15.774002788543086 0.0 -0.09863102589192191 0.03705052925759538 0.0
208 2 5.816860923926785 2.5859631526810847 0.0 -0.07543971645566805 -0.010196573491118325 0.0
209 1 16.12934853030978 8.340848168316043 0.0 0.07891090286257853 -0.08153250660555948 0.0
210 1 12.001961886936602 9.722789470121889 0.0 0.050397075880004756 0.11146699992856599 0.0
211 1 18.428266470153755 15.753514130690316 0.0 -0.019668159686403685 0.022303955301899776 0.0
212 1 2.131034350595528 16.18473279161589 0.0 -0.05678552547215732 0.029273699497631957 0.0
213 2 3.7051810303733173 14.310229228418384 0.0 0.04289457313627141 -0.011192738934368314 0.0
214 1 16.55055899057806 15.268718477559107 0.0 0.045435870257983665 -0.09395612879085573 0.0
215 1 0.00011063947510374753 13.319703984709722 0.0 0.0334946910789535 -0.01412152389254858 0.0
216 1 5.374020695146789 18.144774636396253 0.0 0.11976040368570584 0.11404340778859338 0.0
217 1 1.3303821741059993 14.967965402760193 0.0 0.07226123863397184 0.05104477882116462 0.0
218 1 15.957038223830747 14.88555368402547 0.0 -0.15961106955224072 0.07358111536262099 0.0
219 1 6.17960228377535 14.185698728796458 0.0 0.10489078348796517 -0.036976398434007574 0.0
220 1 12.540312512123762 15.257546907927821 0.0 0.0790807852302819 -0.07035431134923423 0.0
221 2 3.212140072024241 0.42063545872601016 0.0 0.07866205330276521 0.09756947117589898 0.0
222 2 3.1134620021215578 1.690837972277052 0.0 0.020442229631970427 0.02881276405067872 0.0
223 1 0.651006231656139 14.979775346805255 0.0 -0.18763280264066068 0.01219314241915832 0.0
224 1 3.9853237221932707 9.921682635372049 0.0 0.026937078910846977 -0.11589925051080158 0.0
225 1 3.6091323641620066 3.9848176865760863 0.0 0.09579656095985543 -0.10894155980013316 0.0
226 1 15.684899528021118 6.915203091294717 0.0 0.07698037272946273 0.07670833080543529 0.0
227 1 16.40107912293954 15.927323300569634 0.0 0.01437464339299926 0.08607894870976246 0.0
228 1 16.156627681618307 4.029201503250098 0.0 0.03317231840270593 -0.102922367746948 0.0
229 2 18.296210977090944 9.875570672307262 0.0 -0.06598546235824114 -0.015287953430772936 0.0
230 1 14.784506556221583 8.545453370064038 0.0 0.08631699170374353 -0.006584711333088543 0.0
231 1 15.680617825694796 5.922599473866163 0.0 -0.014460158121688764 0.06076382004960587 0.0
232 2 10.118369966626878 4.921933999389552 0.0 -0.12582610607518774 -0.009428987648640752 0.0
233 2 8.181752792322825 14.642888834185898 0.0 0.04175242552735511 -0.0376696275899575 0.0
234 1 12.579449212886349 8.754542420186562 0.0 0.036217705381860754 -0.1005682898522636 0.0
235 1 13.437403107322314 12.196626053482337 0.0 0.08638981188040488 -0.03361987584780635 0.0
236 1 18.788758568162944 17.063638606550025 0.0 0.1887573635437663 0.05861086213407573 0.0
237 2 16.518518356947993 11.670456531021244 0.0 -0.0051750374358998695 0.02082885916423216 0.0
238 2 14.146560949569908 18.615518069963493 0.0 -0.06841888558969109 -0.08467375434403199 0.0
239 1 10.695268441247189 5.858798437168217 0.0 -0.039039577511039945 0.1387978251821441 0.0
240 1 9.080195239261732 2.412688270741851 0.0 -0.19171689441970505 -0.14165994131855006 0.0
241 1 8.25216311950651 17.040011254139383 0.0 -0.12496485733908812 -0.055706786783226464 0.0
242 2 16.492181168570358 19.455335109559194 0.0 0.09345264002644214 0.0396874498561692 0.0
243 1 16.321368571471776 7.139178201160115 0.0 0.10370809706337893 -0.012895216164759398 0.0
244 2 17.90484124798199 13.465120760597282 0.0 -0.016689570276188028 0.026690157481011098 0.0
245 2 11.937245543309965 16.214426263078625 0.0 0.03858291968388014 -0.027356044606712114 0.0
246 2 2.274421185345112 10.619537066017939 0.0 0.02128335778066465 0.10535389369931207 0.0
247 1 11.213486510670151 17.856708399905404 0.0 -0.08244900329402485 0.07228551923567567 0.0
248 2 12.441117375469247 12.619075247105153 0.0 0.008102984738621125 -0.08004110180141251 0.0
249 2 18.76681756705507 19.453626323598307 0.0 0.08271185079357436 0.0008307308327929818 0.0
250 2 13.880129848501563 11.16601120276171 0.0 -0.004055157008253746 0.053749236480317215 0.0
251 1 7.929302650839367 11.48761204110407 0.0 -0.08151685835253963 0.10056078045661201 0.0
252 2 15.292979127245214 16.42070515195454 0.0 0.01295069002059685 0.04010850505269757 0.0
253 1 9.683187390427738 5.895981735646837 0.0 -0.16282149743948 0.07421312545620681 0.0
254 1 8.287180359034092 1.404874051985248 0.0 -0.040156849866760956 -0.057903188648869904 0.0
255 1 10.83718248018595 4.1035077208718125 0.0 0.01567671298334576 0.010452386790719321 0.0
256 2 5.462448679167666 11.482303715388033 0.0 0.03422379524989389 0.01772140630090584 0.0
257 1 18.078435577721233 16.350578879322228 0.0 -0.0038809390166475227 -0.08099300805590218 0.0
258 2 16.433782930841147 12.914801341277643 0.0 -0.07597267321562406 -0.08910052519572706 0.0
259 2 19.683602715117868 0.5199589212546212 0.0 -0.02885417016117868 -0.011932071233601169 0.0
260 2 5.345276501294809 0.5611330773442823 0.0 -0.009604056328667737 -0.07248242604209722 0.0
261 2 12.660912741914025 11.35029167161964 0.0 0.003499147248177966 0.043278642052495785 0.0
262 1 4.803284787153155 17.833158952771967 0.0 -0.03650917160415618 -0.149389226737022 0.0
263 2 2.059098298716104 2.3911813863557114 0.0 -0.03209742856548529 -0.08216711855255764 0.0
264 2 4.350013844683307 16.828724574627863 0.0 0.11275644579619952 0.04833969952240718 0.0
265 1 3.924024243544478 10.583096084547003 0.0 0.09127301734723255 -0.037532402300228015 0.0
266 2 17.313217283315335 5.244891339195402 0.0 0.08397316371835895 -0.06075145709312312 0.0
267 2 7.781226687102381 7.76481865085297 0.0 0.05113619859436388 0.04818442641185308 0.0
268 1 5.3231124745280525 8.388468851791067 0.0 -0.04119223332577529 -0.008976941918249923 0.0
269 2 1.452979444387884 18.41996676730043 0.0 0.0250217349109124 -0.06572831397131523 0.0
270 2 17.021711941240042 9.448565045349666 0.0 0.048999341139764334 -0.0075549383592889464 0.0
271 2 3.187701633511275 7.374710225101417 0.0 -0.04251852665060281 -0.036021080675840186 0.0
272 1 19.404607981811182 2.813045307407547 0.0 -0.008778073950868936 0.07874021833378825 0.0
273 2 12.707719785147574 0.9414611843718069 0.0 0.024266552659347337 0.014865923677310927 0.0
274 2 3.729981049463419 18.032222230580327 0.0 0.011263686735183878 -0.0026905733494460215 0.0
275 1 15.333883900629878 9.29400382177517 0.0 -0.029267863413798684 -7.285480190113736e-5 0.0
276 1 8.345335426295268 13.554763812829522 0.0 0.08734087269254236 0.04129335311409268 0.0
277 1 15.61066126918064 3.2414975344268697 0.0 -0.0345855002287458 0.17280002258514102 0.0
278 2 9.83219644223119 12.819225595858777 0.0 0.104856075944674 0.021017176038707546 0.0
279 1 14.640196142525143 9.213381808123001 0.0 0.00044236063775342823 -0.035467503423778496 0.0
280 2 2.3500364391775386 4.990682349489864 0.0 -0.030291293766063487 0.05971683927960256 0.0
281 2 3.2333250676491945 16.277050521434564 0.0 0.022081854181655605 0.016527959128598387 0.0
282 1 4.328333136450854 9.355319129659582 0.0 -0.034711401768579994 -0.03947050996821404 0.0
283 2 16.046989722924284 10.171835015910375 0.0 -0.005802161823790945 0.08857680614622027 0.0
284 2 13.054796379559539 4.275891443870421 0.0 0.01802265938165058 0.0014812436773923544 0.0
285 2 7.095113578400587 19.176611701484486 0.0 -0.09436625996367944 0.028824774902416413 0.0
286 2 10.658004641243584 16.064142648331256 0.0 -0.05148084520730562 0.04782728055720776 0.0
287 1 3.883819309371224 11.991652671288438 0.0 -0.032463133504500113 0.013882140249245766 0.0
288 1 10.014760843349373 18.335595741996496 0.0 0.03872814056235235 -0.017973055031979508 0.0
289 1 12.621532158269172 9.434128143148218 0.0 0.09652600521696152 0.03790389088604384 0.0
290 1 18.64122255228791 7.172972339529908 0.0 0.13511342772909662 -0.01875757149049664 0.0
291 1 12.34252204341324 19.701487629802937 0.0 0.015863459430543302 -0.03300729402954143 0.0
292 2 2.6377506757955693 8.586339862302536 0.0 0.0021010732765381983 0.01772719412952671 0.0
293 1 18.206005472987993 4.571933280894192 0.0 0.015986598609335684 0.0690411813414675 0.0
294 1 18.707143206245934 7.840340994365412 0.0 0.07404958616498229 0.1993268046877663 0.0
295 1 19.552680009890235 12.695747593123548 0.0 0.14061187309095538 0.08136241116467248 0.0
296 1 9.523462517304653 6.532710916870643 0.0 -0.000344464704001612 0.0006137867078378003 0.0
297 1 4.038318022545448 13.274409506133567 0.0 0.019509211456734905 0.04495691449793785 0.0
298 1 16.118455064573865 6.428330714894627 0.0 -0.028756260965855894 -0.04633340563131565 0.0
299 2 11.456806038813903 0.6151736596808453 0.0 -0.025518746384161618 -0.015343882309776945 0.0
300 2 10.24230883097479 7.384505120121379 0.0 -0.02827121539328098 0.07854306392722474 0.0
301 2 11.588842180711517 10.73617171393795 0.0 -0.05115809067957797 -0.09524081872166286 0.0
302 2 12.855546981705098 7.6636567655161665 0.0 -0.030486797873840666 0.11434195098859046 0.0
303 2 5.116265960336564 10.090565382203916 0.0 -0.033132174501335016 0.03354051145258044 0.0
304 2 14.160839975424114 17.3577436067512 0.0 0.05393075168660362 0.009164569198799185 0.0
305 2 17.234160116244567 2.8349960062351354 0.0 -0.05142995326410989 0.04563424331365869 0.0
306 2 4.673374378145587 7.46601651065962 0.0 0.027251329952052462 0.06018583152655394 0.0
307 2 5.618928915406611 5.123200083335666 0.0 0.019771978405963914 -0.05158906069302434 0.0
308 1 9.921282793581181 3.234121950923222 0.0 0.013937041575344464 -0.18066058386275702 0.0
309 2 2.811889280738072 11.873828064356664 0.0 0.01788058353692506 0.046945706469786366 0.0
310 1 19.41119548632985 7.7710283165204705 0.0 0.036723611422427034 -0.07423067473428677 0.0
311 2 4.594598333769604 4.434576031448741 0.0 0.051229175234105404 -0.1497134093464086 0.0
312 1 10.776363206066195 8.987435508179916 0.0 0.14977536495592225 0.020264596111622825 0.0
313 1 19.395818984097755 16.77280679354232 0.0 0.08826130242347384 0.05089768520102731 0.0
314 2 4.218478401931266 15.478313366921352 0.0 0.02023799959900966 0.03595164002181 0.0
315 2 15.384632994202066 17.661209958905765 0.0 -0.08432173531897547 0.011051598996499535 0.0
316 1 18.873772536577082 6.50241470938987 0.0 -0.006710259634718814 0.05989460755866729 0.0
317 2 14.790279085645874 2.41432362138752 0.0 -0.10648629951766553 0.009926497884623926 0.0
318 2 7.520491160366302 10.404130720395575 0.0 -0.02945742579132426 -0.03913764869218314 0.0
319 1 11.202582210733175 4.690114424695458 0.0 -0.17707415468810017 -0.013739955477439914 0.0
320 2 0.08910490450844101 6.0451121075822645 0.0 0.024735246675716364 -0.13239359775749449 0.0
321 1 7.064214948013325 5.715156428422246 0.0 0.03797172907439574 -0.020868615522558538 0.0
322 1 15.217037762946248 7.379158913018781 0.0 0.008494843226039384 -0.11449049521123143 0.0