ITEM: TIMESTEP
0
ITEM: NUMBER OF ATOMS
400
ITEM: BOX BOUNDS xy xz yz pp pp pp
0.0 19.7609 0.0
0.0 19.7609 0.0
0.0 10.0 0.0
ITEM: ATOMS id type x y z vx vy vz
1 1 2.2936131499025763 2.56680178760977 0.0 -0.04906177560963155 -0.10496172679648474 0.0
2 2 4.512021642467011 5.127402679528062 0.0 -0.11419368130748409 -0.0012246416862565339 0.0
3 1 1.0986556638800473 16.129230325700604 0.0 0.08774762136963044 -0.001217333183424194 0.0
4 1 13.075774917778421 10.57982000732863 0.0 0.02086071058486681 0.006665811127135293 0.0
5 1 18.941782841684542 16.687835494080467 0.0 -0.073475314611204 0.03480171520736225 0.0
6 2 12.938563198624104 14.10426056018109 0.0 0.03769829275968492 -0.021515650149978284 0.0
7 2 11.069012633319584 15.046720725816968 0.0 0.013824198963530506 0.10140454454515642 0.0
8 1 12.48492747164865 4.463398651672361 0.0 -0.06594581323666915 -0.0906589858931966 0.0
9 2 10.859919896839578 8.152291411612874 0.0 -0.04809635148521896 0.03197422052598983 0.0
10 1 6.958751363676105 2.8542950562925005 0.0 -0.025891953263407295 -0.14363529850568585 0.0
11 2 11.08236223829099 16.323270628426698 0.0 -0.004069975864641097 -0.06078547458580842 0.0
12 1 6.467099280754192 0.12022663685463275 0.0 -0.1252392388474084 -0.057508431635017065 0.0
13 2 13.331295756153544 19.275311184276987 0.0 -0.07668270333593662 0.03636874687961725 0.0
14 2 18.938655430291867 1.3357424641114555 0.0 -0.014208716097962893 -0.02305587203639743 0.0
15 2 4.902447237727414 18.19702848851345 0.0 0.030273176114267025 0.0056525020838941965 0.0
16 1 2.552445340068385 6.7622079047873225 0.0 0.058385076157807206 -0.03276770896536415 0.0
17 1 2.9749863902331057 2.6420111209925468 0.0 -0.011428473122753321 0.10532750384631644 0.0
18 2 13.619778425838748 7.7835375257614485 0.0 0.0019840905076409297 0.0684546664589943 0.0
19 1 2.2521188088347146 5.329728716046937 0.0 -0.06209086236006682 0.037369410660519624 0.0
20 1 9.894456974749929 8.708725294360091 0.0 0.10956735652710613 0.0003655090772037667 0.0
21 1 13.670609059263944 5.7728621729668514 0.0 0.05575536243996028 0.03290861460405951 0.0
22 2 0.2826499648770171 19.310217828664168 0.0 -0.001402510865459181 0.11313882657915242 0.0
23 1 14.157766066225095 6.815320608862276 0.0 -0.015508734244405289 -0.01341762215158017 0.0
24 1 16.868524065247215 1.617562984516651 0.0 -0.013599320671489463 -0.05535521513085286 0.0
25 1 9.257291482040333 12.00890039180446 0.0 -0.012521510548475997 0.041582375849020366 0.0
26 1 10.831356978402576 6.446475136898321 0.0 -0.02809342289338929 -0.029911229018830334 0.0
27 1 0.6774208694339442 7.714799515942134 0.0 0.006399264952585162 0.03412754100109397 0.0
28 1 2.555623890170283 3.1915315542458664 0.0 -0.02078111470034455 -0.10935894600099061 0.0
29 2 11.680099901550566 11.559224678753289 0.0 0.04991953603646544 0.044717056456029115 0.0
30 1 14.885205195174152 0.14490031395064965 0.0 0.01524647663644445 -0.020501905492758824 0.0
31 1 15.863363619494178 19.273759824556997 0.0 0.0585496001563405 -0.03964968206506892 0.0
32 2 8.898575396196481 13.085221772376011 0.0 0.09070006257830147 -0.03851482582381777 0.0
33 1 10.508971075683938 1.9013432753700057 0.0 0.07526163427886458 0.04394672266080048 0.0
34 1 11.89375503124444 4.865729123513271 0.0 -0.08856839417797563 0.0175803907004929 0.0
35 1 14.403818935888314 19.474768704373123 0.0 0.12645454129180295 -0.042973991897249306 0.0
36 2 16.733314214008622 18.573398286078582 0.0 0.05194846256285512 -0.02108315743820842 0.0
37 1 5.3557755566964955 7.254967479746462 0.0 0.16511822489192374 -0.007553190408902284 0.0
38 2 10.081393182345625 12.71645747106589 0.0 -0.06523478239516144 0.019246824367952244 0.0
39 2 1.3780630868636656 9.186746966045853 0.0 -0.11449246250994705 0.015875561809342298 0.0
40 1 10.973226018036781 2.3636938459249497 0.0 -0.05207790117961777 0.016060422317508646 0.0
41 2 8.546929755634697 15.545813904090334 0.0 0.04727923861422794 0.06022189165860304 0.0
42 1 15.110536919580015 19.265671494879495 0.0 0.04633437879902415 -0.05283517547523831 0.0
43 1 12.542147838812124 5.110577808614231 0.0 0.039418898666335196 0.03991084674931691 0.0
44 2 15.305377739228394 2.3660474731592105 0.0 0.04800026550539832 0.020138175741490773 0.0
45 1 17.844873425968636 18.484650848894983 0.0 -0.05713308869190716 -0.08432827751724623 0.0
46 1 4.402308105390601 9.234859239378416 0.0 -0.03201535878831497 0.11570890263845686 0.0
47 2 17.44352066172328 17.466751206069855 0.0 -0.027454138486198734 0.10641200101490611 0.0
48 2 1.1082526965180097 11.402939769523162 0.0 -0.02145347364746061 0.06272392365669542 0.0
49 1 18.11451795093294 5.259966156552685 0.0 0.10214819904410741 -0.010731761948085122 0.0
50 2 11.944645627379014 6.0053652558290205 0.0 -0.08312261010037755 -0.06960463862428568 0.0
51 1 16.112775486939324 0.4762592833463731 0.0 0.009231953180471018 -0.1500314893343493 0.0
52 2 13.111138831400792 18.03496116230517 0.0 -0.040253345240441905 0.020675918540365847 0.0
53 2 16.97246562276466 5.2654011926985715 0.0 -0.024876881552255453 -0.005221072562246691 0.0
54 1 10.4065060141177 9.142814077256952 0.0 -0.033637726090404635 -0.02276293965277425 0.0
55 1 10.542412377113063 5.190714676971913 0.0 0.15288847636218944 -0.10991490678375046 0.0
56 1 0.42430908037500764 16.95724740760421 0.0 -0.0963540149397366 0.07607455417288835 0.0
57 1 4.865864589546467 6.771558752315459 0.0 0.01912280635318903 0.0292480114437797 0.0
58 2 19.759432967508918 2.269910662362886 0.0 0.023474550517874226 0.09456494725014226 0.0
59 2 9.503434309354022 9.818442210252606 0.0 -0.0439638118006712 -0.0321997335371534 0.0
60 1 4.206503387792608 9.87494851020092 0.0 0.07168942398747757 -0.030902788287187694 0.0
61 2 8.201891436269081 9.903569284232566 0.0 0.007510151904891793 -0.15439054779936995 0.0
62 1 19.506882820925664 17.036632380821956 0.0 -0.002481832412047178 -0.1118700186666149 0.0
63 1 12.48828537745556 10.855415949897779 0.0 -0.028827354392704528 0.059350341599096995 0.0
64 2 15.202050253561017 1.1591276860080548 0.0 0.051899792040084436 -0.10236905073578641 0.0
65 1 5.0434608107858585 16.224761667538186 0.0 0.1340569566315251 -0.03034039385554022 0.0
66 2 6.855456996430001 4.277409943495108 0.0 0.007978347954785359 0.05533805713138163 0.0
67 1 0.241908032767041 7.192976749304247 0.0 -0.060713031749252556 0.04813758773776456 0.0
68 2 6.89693456609667 12.161533700255127 0.0 0.0015021938401027246 -0.009130036524105151 0.0
69 2 5.0897895637851995 13.460580792423755 0.0 0.04594994237010836 0.060053820215621015 0.0
70 1 18.15072700143048 14.66724404605747 0.0 0.04402128869300429 0.05775868725881749 0.0
71 1 5.393823746213545 16.864875870758084 0.0 -0.05161115572863612 -0.07339154437025673 0.0
72 1 12.538497094643168 7.817971772415448 0.0 0.0019320218766973513 -0.06769978871404844 0.0
73 1 1.5848467179508379 1.4488195461123505 0.0 -0.04327209594262816 0.13204954466500776 0.0
74 1 16.49327105222465 16.883878624230878 0.0 0.027652050715417067 0.08256003905787092 0.0
75 2 19.71316823157653 9.164140555409963 0.0 -0.038920714910224245 0.09980457294547877 0.0
76 1 17.151336268481572 19.588963879622508 0.0 -0.023787447707102737 0.06769734183985614 0.0
77 1 6.452179917964845 3.278526953319255 0.0 0.06395150825140594 -0.04016172503675385 0.0
78 2 9.621261101530319 7.611761696689088 0.0 -0.024741918791270107 -0.000991694812989666 0.0
79 1 3.2292720726018906 16.83633150956342 0.0 0.12531794384947756 -0.07490234841912177 0.0
80 2 17.700734373643034 4.257569041314349 0.0 -0.07325952266432897 0.0001567699398415147 0.0
81 1 3.3675234509247494 8.40921444369006 0.0 -0.0008745206638679781 0.012078479645700285 0.0
82 2 3.35313774030798 14.737610446183858 0.0 0.045473037004938356 -0.03962271010257264 0.0
83 1 10.17515827931504 5.8747600100531505 0.0 0.089231644662408 -0.09377206213991837 0.0
84 2 13.32496917621847 15.274991296078651 0.0 0.021436745973201658 -0.03890425913176506 0.0
85 1 9.286863745884407 17.843234393061124 0.0 0.05903790828452338 0.031028114773284283 0.0
86 1 5.378365525030558 15.62806669260106 0.0 0.026751223034411697 0.05567693145022104 0.0
87 1 5.186807069315684 0.7466708738488471 0.0 -0.09665891553037012 -0.013403794164128787 0.0
88 2 5.7567559566022615 1.7092746507437009 0.0 0.0963383736568819 -0.12170337220066257 0.0
89 1 19.41097590860347 5.439638072740772 0.0 -0.002835218438735239 -0.02168299681129164 0.0
90 2 18.114687011881117 0.3709343666124247 0.0 -0.11115830409847276 0.013066043058864087 0.0
91 2 17.833775114961064 6.31981081070698 0.0 0.028561038436011727 -0.04279612919799959 0.0
92 1 13.844152246720174 3.0253305389211818 0.0 -0.021056643118357275 0.003861561607561769 0.0
93 1 18.121285990550287 2.0641604467363797 0.0 -0.07495871698192628 -0.02507446780992983 0.0
94 1 14.274821642950622 5.468696194485929 0.0 0.05594614663402858 -0.06241624560611299 0.0
95 2 6.793032124411186 5.51269798645444 0.0 0.04903131871189134 0.08130041769383267 0.0
96 2 1.7483674421057276 17.695443430942305 0.0 -0.05658550350674264 0.06139142085962183 0.0
97 1 6.566343101573314 6.579519377942724 0.0 -0.0711341820376205 0.09852531441702686 0.0
98 2 16.49986439391863 2.6383932504096235 0.0 -0.03532008542105838 0.0822601732056021 0.0
99 1 16.50590820832461 1.029038648543459 0.0 0.09332164257385422 -0.10009780603781489 0.0
100 1 2.6464826174317158 3.857524462057278 0.0 -0.14042161910933346 0.09301423400588288 0.0
101 1 12.470563454242669 17.18867449276555 0.0 -0.031924684562134605 0.07312087291396607 0.0
102 1 18.38052085536705 14.055117755693953 0.0 -0.06418950940886249 0.06191620737787448 0.0
103 1 1.444062467563975 0.7961387112143367 0.0 -0.1588243083124191 -0.09220207034682533 0.0
104 2 1.0313355949875347 13.711194560882348 0.0 -0.030923435393394247 -0.009651776078179465 0.0
105 1 3.8078108160912585 18.10840492760702 0.0 0.06904440444110613 -0.14238158493397832 0.0
106 1 4.264969429242384 10.545470908124768 0.0 0.0008856453324888829 0.023433539759577744 0.0
107 1 8.384835736445442 1.5419946157689177 0.0 0.012964349983390648 0.006104616426810997 0.0
108 2 9.943600375843117 2.8812750096013056 0.0 -0.11434865894479486 -0.04193272824911808 0.0
109 1 9.762406441738774 18.314048323527906 0.0 0.14417244957945866 -0.05487659692220507 0.0
110 2 13.035984913493916 6.695549736351423 0.0 -0.015293974742896779 -0.011797928283187575 0.0
111 1 4.759129978419352 1.2828648078539746 0.0 0.07628826652855394 0.05240099411006609 0.0
112 1 12.201368498737509 3.57870436004148 0.0 0.03074317133083603 0.07718579591983206 0.0
113 1 17.51955611300041 13.010955725312096 0.0 -0.014763390248151917 -0.07422441066049051 0.0
114 1 11.335670527553226 17.493314416177824 0.0 0.013379487137845354 -0.06989448103008412 0.0
115 1 0.436374121923608 6.528539788645335 0.0 -0.08137242874079459 -0.13657371423741257 0.0
116 2 16.46910519035679 14.426158069891837 0.0 0.061886832042422464 -0.010395430628074477 0.0
117 2 17.30047320738755 15.372419389824973 0.0 -0.006417769067149675 -0.08279381148125046 0.0
118 1 2.152654781649664 13.559561348594338 0.0 0.043293751414831085 -0.04915687237572606 0.0
119 1 16.35182842480288 16.194978832969007 0.0 0.023506393673887595 -0.04576197596960547 0.0
120 2 15.37991940404737 5.632006184241637 0.0 -0.026457155928631765 -0.014050094948996726 0.0
121 2 3.6953624120842004 1.560846368306892 0.0 0.004150504300925772 0.009211589119329459 0.0
122 1 1.7540715157295272 4.818572111374137 0.0 0.10006604578847914 0.0020205869063516504 0.0
123 2 15.290776114399938 13.778921437692956 0.0 0.02616276881807778 -0.030286693163927358 0.0
124 2 14.158171872242754 17.188698548076967 0.0 0.014252133409515857 0.07117301432008638 0.0
125 2 19.059581933505395 10.310424200750546 0.0 0.02920749901461207 -0.03042380742205583 0.0
126 2 2.074657316720904 14.670148190880294 0.0 -0.0943532787970115 -0.032316277675440194 0.0
127 2 5.616340448066862 5.998901127244428 0.0 -0.05406653059028268 0.046683040718344185 0.0
128 2 12.056025303784041 2.4927860301088027 0.0 0.05016981531208518 0.03303164740321086 0.0
129 2 16.99133713121573 10.784170426147421 0.0 -0.018541483899303244 -0.094910636582851 0.0
130 1 5.946040507904817 19.47549570431513 0.0 -0.11252838755821944 0.008669373921131983 0.0
131 1 10.591527525954355 4.50534641835296 0.0 0.017059158468052546 -0.0750569130802249 0.0
132 1 2.85987337102903 5.045533933172378 0.0 0.01492335291781877 0.06086643620341768 0.0
133 2 18.995906681738738 4.437472878227687 0.0 0.019580857394944078 0.02533948322044771 0.0
134 2 18.9990472938729 12.180300199047887 0.0 0.02981560044533628 -0.03652334340721965 0.0
135 2 6.825249070583225 1.1193937381967558 0.0 0.03641476448551987 0.032663359083287005 0.0
136 1 17.273615436014957 11.806065142353408 0.0 0.09679145943527813 -0.05622491077894757 0.0
137 2 11.081431108487493 3.4573594319168492 0.0 -0.028837037409176973 -0.02323835131764333 0.0
138 1 0.03227071518420303 0.616855065695442 0.0 0.00017671585645899352 0.009733217684915082 0.0
139 1 2.792999324369375 13.773456969103616 0.0 -0.04152647883108064 0.029352230847067385 0.0
140 2 7.303745306855835 10.959475024177733 0.0 0.02744163928863449 0.013752343802379946 0.0
141 2 3.6314254768904517 4.286337167034175 0.0 -0.009857281171930807 0.09751280730197812 0.0
142 2 16.1500564176264 7.582848289767632 0.0 -0.06385302986054649 -0.09071569912353655 0.0
143 1 2.075714874491123 1.9129072479700888 0.0 -0.044816986380232765 -0.093168278720807 0.0
144 1 14.301722823782308 13.256032649027913 0.0 0.09099563535102946 -0.11075098653988724 0.0
145 1 2.3585662936714247 16.814512389083617 0.0 -0.03301804278426707 -0.10513624623396464 0.0
146 2 2.5849126540036105 0.9307237455687668 0.0 -0.02273388752433001 0.02071600965413164 0.0
147 2 14.164892375547561 14.346785581781544 0.0 -0.041890526939031815 -0.044889143899507496 0.0
148 2 9.491249476712536 14.640257600522409 0.0 0.06663687052667049 0.03511294139895106 0.0
149 2 8.102285385471744 4.9687757766360265 0.0 -0.055297284029926244 -0.056924652295867344 0.0
150 2 11.720881260680788 13.924986723399936 0.0 -0.008019344784990511 0.10494525828881211 0.0
151 2 8.591516072798116 2.6146886945855448 0.0 -0.047616843195178234 -0.032072465457563766 0.0
152 1 6.837566471291265 2.197241158136837 0.0 0.1304844554958623 0.035012973095301964 0.0
153 2 14.408993842313116 8.77499838544783 0.0 -0.022959756507586734 0.007929211084462534 0.0
154 2 15.157860720229849 12.57983392174952 0.0 0.07097134597613904 -0.01695868255632022 0.0
155 1 3.8803769929781513 7.3466495487916275 0.0 -0.000909850857688011 -0.17235936182083766 0.0
156 1 16.356430499445924 17.544574195192016 0.0 0.07675424234885427 -0.054135007185391104 0.0
157 2 16.397054408683754 9.649377039212988 0.0 0.07583566671144741 -0.05299690279493017 0.0
158 2 18.214155117645436 11.263177152755375 0.0 -0.0803557283341602 0.028775349008452505 0.0
159 1 11.83498458014458 17.07164825329076 0.0 0.03786309372943947 -0.07712394142421651 0.0
160 1 10.675469286658904 11.063349468863278 0.0 0.07969435597920782 -0.019604409890886222 0.0
161 2 12.353221860853838 16.088783830470042 0.0 -0.04739114482533553 0.052266085273518025 0.0
162 1 5.9705409159297655 18.096921793623366 0.0 -0.0666234057020041 -0.0039057658140491005 0.0
163 2 12.133552090052678 18.830864854985016 0.0 -0.08425889154766662 -0.010960928581574518 0.0
164 1 3.361390343703932 7.742546757639721 0.0 0.08879353728321258 0.08156285354384442 0.0
165 2 1.7134795488530778 12.558780536419537 0.0 0.01043716795941724 -0.033754842093086004 0.0
166 1 15.901818354586114 10.651885920047084 0.0 -0.04829215492501397 0.058055753960532086 0.0
167 2 8.226462674307916 17.668340963163214 0.0 0.011798466759155817 0.02532741341240149 0.0
168 1 18.032269396138858 9.518624322937312 0.0 0.03301759284095066 -0.03605353584799445 0.0
169 1 13.013116917183124 5.603186710000699 0.0 0.029884297814055216 -0.05302943087338822 0.0
170 1 17.174756940278094 12.446425081814088 0.0 -0.004889865117431515 -0.029608567943054567 0.0
171 1 5.817179878760426 18.804297821183344 0.0 -0.01045009074802346 0.12275520206517626 0.0
172 1 10.129054434827008 6.554472556241508 0.0 0.08671822080042145 0.11097351951343674 0.0
173 2 17.637891217419543 3.045169658480447 0.0 -0.0763035634929517 -0.06290588429912256 0.0
174 1 1.8008248070343176 0.196386424998837 0.0 -0.019542349707838278 -0.03337427260504139 0.0
175 2 15.635091176231862 3.5758238880769584 0.0 0.08601703734362429 -0.004057753783439075 0.0
176 2 0.5852065660854429 10.269542798272468 0.0 -0.03321098221030639 0.016565484122664818 0.0
177 1 3.9488702518032026 8.734025971053168 0.0 0.12248426962803274 0.036237125624943876 0.0
178 1 17.961743686728664 10.199011811827939 0.0 0.07420314106643415 -0.006439656368723634 0.0
179 2 12.584396566519928 12.897912167619035 0.0 -0.052251867633834326 0.054281690540753144 0.0
180 2 11.29797499993822 12.716804395053513 0.0 0.07067902958443638 0.029992917807381392 0.0
181 1 10.577795816374158 11.741349098386323 0.0 0.024684987441291356 -0.13991102595358793 0.0
182 2 15.0563651448339 9.894562524910357 0.0 0.034232736133846524 0.01254548149659737 0.0
183 1 3.634426673462042 2.654128134569541 0.0 0.02723707162697482 -0.0012541971680917479 0.0
184 1 17.209193361883557 7.230689107905099 0.0 0.052039570257795084 -0.08773907751971029 0.0
185 1 2.7219052095560783 2.034593392309905 0.0 -0.016114571251601508 0.0024120279318892396 0.0
186 1 16.222177052708698 15.529987017473008 0.0 0.026805308557827204 -0.018551193807568936 0.0
187 1 4.202640861087434 6.766986714787844 0.0 -0.004998021831104157 -0.08681257898021147 0.0
188 1 3.169727820988805 7.096279743608001 0.0 -0.08628331309465345 -0.011358866000460334 0.0
189 2 8.909044078273359 10.97537850939504 0.0 -0.012706399612401947 -0.09525847524975278 0.0
190 1 12.753868879564202 11.828034892620805 0.0 -0.06871277958961002 -0.052959858001768556 0.0
191 2 0.0070353000128279075 15.957651172827342 0.0 0.03407727332294953 0.08434808208530571 0.0
192 2 10.3096013459548 0.8278953302949684 0.0 0.0034856500252974268 -0.01368455939730013 0.0
193 1 3.942192610383673 3.2343738194037606 0.0 -0.10037436997161492 0.14136777943610826 0.0
194 1 6.036654207753023 7.0206358855544355 0.0 0.030433491946159682 0.0050885526311826535 0.0
195 2 3.195471881191274 10.420249910418214 0.0 0.027019978909693224 -0.0004963181340521251 0.0
196 1 19.19279183317271 8.196080064648832 0.0 0.032301291069467844 -0.10789208248405202 0.0
197 1 0.5658515751273261 18.225361855175642 0.0 -0.015596823970371466 0.055095479670671035 0.0
198 2 7.549664032051842 8.703956682730848 0.0 0.014927262386785272 0.0026862777728204968 0.0
199 2 0.2828856129243364 3.529234990921303 0.0 -0.00222044072175236 -0.09047941316710238 0.0
200 1 5.755930341187148 17.446560205342415 0.0 -0.02669674677283551 -0.028138817054514414 0.0
201 2 3.415321680421514 5.995877928040996 0.0 -0.030156719324656273 0.09557714000104031 0.0
202 2 6.212473320379086 8.724376882133404 0.0 -0.022759091793718576 -0.07317853788649764 0.0
203 2 8.833666738107052 0.4852802737799569 0.0 0.01784006146814589 -0.018051009939599714 0.0
204 1 7.756893086990806 1.7952671848112465 0.0 0.0963440099815462 -0.18358223488930517 0.0
205 2 4.342781126194936 12.311743876891827 0.0 -0.029955113076854115 -0.052052533509554716 0.0
206 1 13.460961671911708 16.356566234042425 0.0 -0.03561802220047546 0.03966346923554278 0.0
207 1 12.682537171087215 8.479758871699314 0.0 0.05939170460165232 0.18966359732722796 0.0
208 2 14.801189997330166 4.490948432012658 0.0 0.05309028134644308 -0.004207524474997072 0.0
209 1 5.849145706732155 0.4636266196603146 0.0 -0.024674767741730698 0.10577577473635325 0.0
210 1 4.392301164395765 0.6977948385991833 0.0 -0.056449031577061035 0.00413378887620005 0.0
211 1 2.3963521603368094 4.520403933407861 0.0 0.26172770058982503 -0.0991046884927083 0.0
212 1 11.999968123844319 17.724588256940933 0.0 0.06534111507324748 -0.15260019763226368 0.0
213 2 14.880385280881567 7.646278198569984 0.0 -0.03747055370744611 0.013625339703905755 0.0
214 1 10.43832276459683 10.43172080915315 0.0 0.08568919559004301 0.04095203447131411 0.0
215 1 16.757158317579297 3.6943614646320713 0.0 -0.04751415747317103 0.0074049552165578215 0.0
216 1 16.488828818843338 4.294997233620501 0.0 0.04463246874770409 0.13121014300598594 0.0
217 1 18.215639181727514 12.948832521843688 0.0 0.03869977852270261 -0.09545178815474889 0.0
218 1 18.06203777519098 8.834855816608664 0.0 -0.12149171514833668 -0.045899818256908094 0.0
219 1 16.845348628702897 0.4382004894877373 0.0 -0.04764427995379897 0.024087530426111222 0.0
220 1 17.440579360325142 9.797452928313865 0.0 -0.020364829011826995 0.05831981462265231 0.0
221 2 4.858098099424802 19.478474968687873 0.0 -0.02991254520256937 -0.08741725148622241 0.0
222 2 11.525379648682625 10.320274018283435 0.0 -0.03382482112845878 -0.04924895350801941 0.0
223 1 4.527554545749841 6.194014384484633 0.0 -0.020506069657238186 0.07702052158840446 0.0
224 1 17.414298564154816 9.125762775888793 0.0 0.10100457322808368 -0.021362846408043243 0.0
225 1 11.233237221054134 5.1874387283504335 0.0 0.046225600155420564 0.13387993289801167 0.0
226 1 15.93401469783036 4.6751838499200975 0.0 -0.023240774293861625 0.0576452153358422 0.0
227 1 11.669563598383212 8.896209923607817 0.0 -0.0010601945999647415 -0.020900638985609895 0.0
228 1 6.174327066689962 10.616983400567506 0.0 -0.008050221937374974 0.027210901066460465 0.0
229 2 14.527949963340928 15.97652605462527 0.0 -0.033560949436147874 -0.05865706299634672 0.0
230 1 14.105601272566041 3.658187926150723 0.0 -0.060815022958819596 0.02128997770456908 0.0
231 1 4.547305530066284 7.359045757147408 0.0 -0.15316982923827194 0.184101088355303 0.0
232 2 9.43511889272088 1.7012003181177031 0.0 -0.09408143480514698 -0.03136719821568154 0.0
233 2 13.832410474314647 12.17196246342917 0.0 -0.061960762465262255 -0.0170587674987761 0.0
234 1 2.368277898818308 19.5781888125222 0.0 0.14667159878578928 0.0671223481929295 0.0
235 1 1.1386954076871731 0.20000302639384204 0.0 -0.016318123063546904 -0.02498494893758562 0.0
236 1 6.448292461816806 18.54154746491209 0.0 -0.08566239777934169 0.04253117201566318 0.0
237 2 15.400069693649634 16.984225837164924 0.0 -0.03670274118355869 -0.05280644270541448 0.0
238 2 7.693376686063951 6.40765767966728 0.0 0.020705388828072567 0.001118807559992978 0.0
239 1 3.3739258297498034 17.594092448260408 0.0 -0.0192758548541271 -0.006515920105894767 0.0
240 1 2.7726083324170916 17.34960981426744 0.0 -0.04155155514746342 0.05921543148016977 0.0
241 1 7.901247990219592 1.1094203405018772 0.0 0.06099526686751672 -0.01137819680375066 0.0
242 2 12.502516152732223 9.601303174238629 0.0 0.12575710983729232 -0.005419108242948506 0.0
243 1 18.641543088643886 9.286262021900418 0.0 0.0012190873072016927 -0.020538423287395028 0.0
244 2 4.737014156512426 2.4430103202934808 0.0 0.017906184608540585 0.043840824578006136 0.0
245 2 19.308602312939218 14.698470354608823 0.0 -0.011185395875124153 -0.022964077956673646 0.0
246 2 13.882359373508985 0.6977395344662957 0.0 0.04102864167531563 0.011967988029782214 0.0
247 1 13.648540675801511 13.280578379974694 0.0 -0.0896654437316126 0.0641119310286746 0.0
248 2 7.557500914801534 0.07890617823250944 0.0 -0.016823174492862657 0.027841579088200195 0.0
249 2 5.6246638465056655 12.24737062626823 0.0 -0.030726379049879078 -0.0794552951304262 0.0
250 2 12.423525083781794 0.39122504767674243 0.0 0.020824440453087616 0.03271258902244562 0.0
251 1 6.235143212770466 11.300043725026228 0.0 0.04647590885546309 -0.05533317948884094 0.0
252 2 5.853366882119083 14.586787913058208 0.0 -0.03587130909086447 -0.050200195333189576 0.0
253 1 11.087850617356754 9.27986266525047 0.0 0.056510864685222 0.012475402922227295 0.0
254 1 15.545250095950125 0.0928126654322726 0.0 -0.03903197714543735 -0.05627145113900909 0.0
255 1 12.212189867164208 14.954657875125301 0.0 0.04700656589000378 -0.045114508467472565 0.0
256 2 7.512081103611003 18.633570316483286 0.0 0.030400160060187646 0.013581654172764702 0.0
257 1 14.78918895577687 6.55097825094912 0.0 0.009918725188626798 -0.0858432990931311 0.0
258 2 2.3277938880920677 7.937215522596693 0.0 -0.06623679684675383 -0.04488927031018434 0.0
259 2 1.8949141144236918 10.351375642654798 0.0 0.0022591920802592096 -0.047662430352661045 0.0
260 2 0.4407099658280038 12.489813322745642 0.0 -0.05458580844621176 0.03324398310658768 0.0
261 2 12.907043200028133 1.5659408333780411 0.0 -0.0499459250227667 -0.02859984049774498 0.0
262 1 3.9565746051804975 8.04696513735432 0.0 0.0511653550550431 0.0013527201828952462 0.0
263 2 11.658804347481162 7.196754108733038 0.0 0.011245326095986462 5.479906771810765e-7 0.0
264 2 6.322003376310226 13.27807835670348 0.0 0.09150385936560376 0.0207416600663035 0.0
265 1 10.012687283402334 10.939495568157954 0.0 -0.10822279976999556 0.025761358952285235 0.0
266 2 1.4710892361410706 18.904155821376065 0.0 0.02676403367071506 -0.013001292591662725 0.0
267 2 2.7279021237100824 15.814885522661521 0.0 0.005076881441834667 0.010532279333299704 0.0
268 1 14.246562869881432 6.145896449656596 0.0 -0.12817550287069263 0.012194135145344556 0.0
269 2 14.143016510756384 10.931214641119155 0.0 -0.03024579167241322 0.018770495334921988 0.0
270 2 15.517201607246214 18.247380990145942 0.0 0.029179873168511977 0.012754656249291292 0.0
271 2 7.157208344244364 15.456956483716942 0.0 -0.04019510988303754 0.008478179252703067 0.0
272 1 11.8848835196496 4.183277646391827 0.0 -0.08234350520696757 0.08338718783528368 0.0
273 2 9.931316462875898 19.405241447770514 0.0 0.007771793048479634 -0.03936611046912988 0.0
274 2 8.294277009969628 14.254418288053165 0.0 0.051647147437496946 -0.07545311389834625 0.0
275 1 17.60844856554216 14.25865535026355 0.0 0.050519519451334906 -0.10945731083448468 0.0
276 1 0.6735073457352084 8.362777000058157 0.0 0.024597040670023523 0.12268465331414549 0.0
277 1 1.7259204165831439 16.472725700128997 0.0 0.0022576192497138895 -0.004250112372784291 0.0
278 2 8.149029645013021 11.962815037739617 0.0 0.05277564393196924 -0.0043852805311203275 0.0
279 1 15.319633396107049 10.967419567753506 0.0 0.08235224451200138 -0.07892514618123138 0.0
280 2 5.3410772174153225 9.822958583274282 0.0 -0.1197902479452086 0.08354845219636325 0.0
281 2 9.488242301845885 5.001277278426969 0.0 0.007455295961852108 -0.020869767643971228 0.0
282 1 15.703759373600905 15.960938673132466 0.0 -0.06513782331317883 -0.0026567932791329565 0.0
283 2 0.8433656695254205 15.008990877326951 0.0 -0.03954945699348678 -0.05300834511105849 0.0
284 2 5.017522386512402 8.33383953082081 0.0 0.0584871180041502 0.0008894898827366993 0.0
285 2 7.746397258189987 16.54618634714705 0.0 -0.07741613350212118 -0.02888106602076834 0.0
286 2 7.786751657504874 3.5288195049418887 0.0 0.04953021785378538 0.030229495582303628 0.0
287 1 1.0972358683535657 16.807295201135783 0.0 -0.008401615149414527 -0.04855256083154647 0.0
288 1 15.016127276114199 11.533777975229123 0.0 0.07456411282147686 0.01878040252824241 0.0
289 1 1.2667841287797568 8.074347706936969 0.0 -0.015694716598396524 -0.025365666338950717 0.0
290 1 0.28580785597272074 1.233484618957394 0.0 0.010313749549326142 -0.13087759132589744 0.0
291 1 19.21691162167906 0.28323118762957405 0.0 -0.04132123048931797 -0.15281795088159963 0.0
292 2 8.78202382579205 18.872753211100285 0.0 -0.08250475788451958 0.008517322146758679 0.0
293 1 4.052149523947889 11.19140578163275 0.0 0.020936522032508037 -0.06418242014941378 0.0
294 1 13.275294193129318 8.807709290637455 0.0 -0.13588939063487812 0.030330492520052328 0.0
295 1 0.09036972860860376 8.050082384702968 0.0 0.0023910522045963007 0.013161453801937026 0.0
296 1 16.448654163081272 19.63938228740286 0.0 -0.0361331744415795 0.07951392873245981 0.0
297 1 17.42614264984859 1.9717557884414294 0.0 0.044619337835475566 -0.027314017191293803 0.0
298 1 6.579255452450026 19.21943428038869 0.0 -0.06911232533935327 -0.04080827003117081 0.0
299 2 9.940170662925818 15.820452055014096 0.0 0.023930516849798016 -0.0025511702499065544 0.0
300 2 6.904136847970825 17.516744140532293 0.0 -0.13504331022288432 0.036559324522054175 0.0
301 2 3.4872570918983437 0.03675627265628776 0.0 0.021141842553338 0.09290106267913997 0.0
302 2 1.4674950821655706 6.9722505091077 0.0 0.07657265393183138 -0.034355609189166754 0.0
303 2 10.882547219816473 18.493294227492267 0.0 0.009392463540251828 0.025622362229263368 0.0
304 2 1.5636804042815546 3.728063249036663 0.0 0.10220892137875401 -0.04922297962803169 0.0
305 2 0.5600783780656946 4.763186833953076 0.0 -0.032904801144842726 0.048226971206552484 0.0
306 2 18.52323817426982 15.674800692415014 0.0 0.04576938396266612 -0.01921253657165103 0.0
307 2 4.316360070618457 17.075070269836967 0.0 0.13462495877829725 -0.02857590559059382 0.0
308 1 6.080398518572094 15.670770260733835 0.0 0.006845279533123516 0.15578939707530368 0.0
309 2 15.634672623900954 8.703186903430487 0.0 -0.002695081097852266 -0.08911147973502682 0.0
310 1 17.22196680840877 1.0372696698288815 0.0 -0.0601377319988497 0.04378718025517689 0.0
311 2 10.476495333977786 13.882325279542071 0.0 0.05631827814076553 0.04210791653143714 0.0
312 1 13.230204544820975 2.646496123790678 0.0 -0.03990753293917695 0.028235643961135228 0.0
313 1 6.628347098740921 16.41120331472515 0.0 -0.07650699315925363 -0.0084540330339192 0.0
314 2 1.18836547872911 2.5097929889666806 0.0 -0.014881020916458943 0.05078820406774441 0.0
315 2 18.848259280101807 3.1169090366441234 0.0 -0.011201887980617505 -0.004389450592922702 0.0
316 1 12.855881374356908 3.2207514465432134 0.0 0.05500615288050684 0.03869542524948242 0.0
317 2 19.07441785999039 6.541616380862266 0.0 -0.0006296288505046282 0.018573669364111013 0.0
318 2 18.68455159350723 17.768486676936202 0.0 -0.02051720872673047 0.019298620832902808 0.0
319 1 17.16869614638444 7.9017251173226235 0.0 0.1458675340093644 -0.11367015512610776 0.0
320 2 3.8672200004051533 13.589970538335965 0.0 -0.013256520762063627 0.018261166604358076 0.0
321 1 15.447621500111795 6.7258035559797325 0.0 -0.08647157733491034 -0.06161833150365677 0.0
322 1 5.722778310155267 16.249276658499987 0.0 -0.09508217811311113 -0.0763251738629025 0.0