ITEM: TIMESTEP
0
ITEM: NUMBER OF ATOMS
400
ITEM: BOX BOUNDS xy xz yz pp pp pp
0.0 19.7609 0.0
0.0 19.7609 0.0
0.0 10.0 0.0
ITEM: ATOMS id type x y z vx vy vz
1 1 2.289650469293997 14.443341275222322 0.0 0.06171122351062778 -0.005349919398355647 0.0
2 2 1.2699622827347226 1.8058473106342945 0.0 -0.038165019833012716 -0.0646474538579712 0.0
3 1 5.2169225676497595 5.626663316499727 0.0 0.13176219328967953 0.03839939230447615 0.0
4 1 12.219138908789063 1.7242491159401723 0.0 0.0574416820205897 0.06732337401824941 0.0
5 1 6.962705545559591 9.895695049697364 0.0 0.02010715443930579 -0.03198678447185027 0.0
6 2 4.299026539021606 18.1630831146643 0.0 0.14192175383708477 -0.0475802481021118 0.0
7 2 9.842285688497167 0.4625737730231026 0.0 0.05459157672069798 -0.01484510182907967 0.0
8 1 7.793912806609099 4.872078873006891 0.0 0.010056002812539835 0.06369896144710728 0.0
9 2 4.09379898605257 19.68747448727992 0.0 -0.003980788746022567 -0.0778764677047735 0.0
10 1 5.989395165140286 13.000340240047546 0.0 0.03460073954348992 -0.020892754726282613 0.0
11 2 0.6852549315759625 6.243051450842574 0.0 0.008278706151013388 0.015922382059272395 0.0
12 1 9.757891594705757 2.4584865372657436 0.0 0.01313386945949311 -0.02505595202099044 0.0
13 2 18.92666425801132 4.94069824767849 0.0 0.08748281941482346 0.049326809698556115 0.0
14 2 17.328181889430237 1.5660662036867108 0.0 0.05211622501849887 0.06393411531305083 0.0
15 2 5.905342567414632 14.823567471728463 0.0 0.04132349182333933 0.04354788479126102 0.0
16 1 8.850841298645406 6.694783404753833 0.0 -0.03075678117471868 -0.041410980900569196 0.0
17 1 14.520061400170258 0.9102087507679809 0.0 -0.14078699028146674 -0.11268518656504124 0.0
18 2 14.672605932494687 6.7549075965061895 0.0 0.024099662412086578 -0.13149367201452136 0.0
19 1 16.091271769858807 14.039426788161714 0.0 -0.0855624967095396 0.19955468391873563 0.0
20 1 10.03723246629699 9.889940605220012 0.0 0.05391424185369941 0.01166966000114336 0.0
21 1 6.758735327175485 14.182820110751434 0.0 0.04914031839763617 0.15338867413008084 0.0
22 2 9.89004808253019 18.94183205681387 0.0 -0.04091250021403768 -0.06569979525587713 0.0
23 1 3.024754866770766 8.049317775652602 0.0 0.047850071239763294 0.0328292725084465 0.0
24 1 6.300125572862123 6.11524142545764 0.0 0.026258351481730557 0.08332756148130922 0.0
25 1 11.335861578041536 6.952373251805876 0.0 0.1558387368079904 0.036236669014636166 0.0
26 1 14.736433428643583 5.643751324621328 0.0 0.09267618106195918 -0.026719272128633325 0.0
27 1 17.825275816634644 19.60997722724227 0.0 -0.03838248235293071 -0.00011698848427127377 0.0
28 1 1.5050511579824943 16.463016306147605 0.0 0.061564206257585054 0.044997411074636014 0.0
29 2 14.00678892668814 1.8941713824036754 0.0 -0.004570944567747832 -0.014293829815628687 0.0
30 1 5.077813193523315 2.1957539468871343 0.0 -0.08142238605689579 0.024968793315719807 0.0
31 1 12.791335289978006 14.612912361843666 0.0 0.10567186398076725 0.045979525899979064 0.0
32 2 14.412459179205413 17.71960068898381 0.0 -0.00016972399680083771 0.01595739144293719 0.0
33 1 5.986417553827226 7.976077712184352 0.0 0.013123946797379965 0.12004318884187215 0.0
34 1 16.07439027808141 12.156281468700165 0.0 0.02945553441515626 -0.06320712473392724 0.0
35 1 3.6690325704216784 3.2454757253948214 0.0 -0.08834986456870561 0.15062751318354115 0.0
36 2 9.139882809061664 1.5154577015406219 0.0 -0.05343884840996299 -0.005109623961816971 0.0
37 1 7.012070399629852 13.568419161055662 0.0 -0.011399072752880787 0.11719232283126325 0.0
38 2 14.756944024222529 15.234454580568364 0.0 -0.03298133382774725 0.03562470488853249 0.0
39 2 8.777919882337516 19.580382309651736 0.0 -0.08311717868845833 0.06341656917864448 0.0
40 1 11.540252105289369 1.8628668392608396 0.0 -0.01571229746246332 0.10236090883132908 0.0
41 2 10.582054545290996 14.535675112668873 0.0 0.03801774209217806 0.03934410960794868 0.0
42 1 15.988420430969423 19.54485082592864 0.0 0.009485273909746666 -0.007269881519567431 0.0
43 1 1.2449104019821722 15.14569002097081 0.0 0.05529536830080928 0.0026605801151501278 0.0
44 2 7.104751091037756 18.335659507803253 0.0 0.03854343978874447 -0.08224995265530388 0.0
45 1 13.068723530381325 1.3998561964402636 0.0 -0.07653728027130381 -0.12303114954012917 0.0
46 1 2.995647968843887 3.3759177116084875 0.0 -0.031760346132073465 0.06178258921448335 0.0
47 2 18.966559790574195 9.145313899448826 0.0 -0.03602268829402476 -0.07329152889609886 0.0
48 2 3.5119578533322264 4.343020121317621 0.0 0.030575617237946127 0.016303974893133736 0.0
49 1 8.257198002071505 7.024972758351077 0.0 0.08719390667591775 -0.005551380185304904 0.0
50 2 1.6652942087028129 5.4162624019738 0.0 -0.007721345470183873 0.06958927350134395 0.0
51 1 15.815553902664295 0.4631322095985649 0.0 -0.06990242051112484 0.06892334461779605 0.0
52 2 12.57014952086321 4.001566654367856 0.0 0.012419563081265492 0.00588069035851317 0.0
53 2 17.870097198623792 5.922128405819651 0.0 0.11960797989415906 -0.015082880446710717 0.0
54 1 16.700444615396194 9.61466822790557 0.0 0.007495112969809639 0.028330519354412716 0.0
55 1 9.980012274048919 8.497967052861142 0.0 -0.0705065934346256 0.004165329703854813 0.0
56 1 2.224747662523195 7.023094638588156 0.0 -0.03781094948520342 0.13300155944591435 0.0
57 1 10.257541401944184 3.6755375790128 0.0 -0.030702543768368767 0.09326123049345933 0.0
58 2 3.0850940267971536 18.195047027798786 0.0 -0.10086160383387828 0.006895242185394564 0.0
59 2 9.883982650355673 13.5035476894532 0.0 0.017431580738154803 -0.11662784283495368 0.0
60 1 18.703550295744627 1.694200688224737 0.0 -0.14526975854567842 0.0006964182169141534 0.0
61 2 0.974376018782364 10.973006473451704 0.0 0.016424715411093825 0.016670608570279816 0.0
62 1 2.1978502508824875 16.684764081060443 0.0 0.0342377059208245 -0.06166521100531983 0.0
63 1 4.190864004762962 13.452299336327487 0.0 0.06718744507665318 -0.14860973296885288 0.0
64 2 14.246450845974515 13.037316002336134 0.0 -0.03880736252815087 0.006791063997589014 0.0
65 1 14.632745539653556 4.951132771601153 0.0 -0.05867284719792327 0.022175615485505642 0.0
66 2 12.432555482792168 18.32816259973374 0.0 0.021426353329305065 -0.0010848159665844928 0.0
67 1 6.644285395198992 13.051555295745764 0.0 0.04475677755845621 -0.0543186339009744 0.0
68 2 8.160691616556365 3.8752484779928102 0.0 -0.032674521444461174 -0.04886244197586974 0.0
69 2 17.156944790288843 3.942477837916328 0.0 -0.05120175311168768 0.0858212466896922 0.0
70 1 4.921234321750745 6.233043522153803 0.0 -0.056545067430261615 -0.1177399277003207 0.0
71 1 16.568295454460372 4.906581112987646 0.0 -0.04535002230898787 0.05004157773630621 0.0
72 1 16.887197854218787 15.152602771845341 0.0 -0.019604788467977842 0.004233352422909414 0.0
73 1 14.988620912397806 1.398147371085509 0.0 0.0334958108149427 0.054411716001483465 0.0
74 1 4.152369047176959 14.132982112157176 0.0 0.08111455691864249 -0.047078534337357175 0.0
75 2 15.760242081330265 17.9918153295878 0.0 -0.08519745558737288 -0.030732846290001305 0.0
76 1 17.379023125280465 13.944177270533402 0.0 0.031607318620287074 -0.03274707378991215 0.0
77 1 14.702844616304661 0.23875913842488714 0.0 -0.06540959879377116 0.1442471229346401 0.0
78 2 13.812140043097813 4.238253936880415 0.0 -0.07857724855210396 0.011897865888969756 0.0
79 1 15.085350919930614 2.0750551527109695 0.0 0.06269551454217376 -0.08761320340194262 0.0
80 2 4.94612298580096 4.491026258054216 0.0 -0.06891486119039189 0.06069621583029762 0.0
81 1 9.49122243282281 14.533648791528936 0.0 0.03602058140306447 0.026861256604008774 0.0
82 2 11.228919048293854 18.66295384786849 0.0 -0.05943600555443198 0.01954807739557241 0.0
83 1 16.83725487363425 6.304473499163317 0.0 -0.02834114248751029 0.051906187098396964 0.0
84 2 18.425215830283772 14.215197798885555 0.0 -0.032562984565585144 0.03126492764244008 0.0
85 1 14.221728605141777 19.540841730838828 0.0 -0.020999840206764042 0.04447288139404937 0.0
86 1 13.46300487405717 0.8261726828361518 0.0 0.01724494962441639 -0.009455249204040443 0.0
87 1 15.252914048331236 5.187200527347509 0.0 -0.09181045388748471 0.006794359800116027 0.0
88 2 16.682783894311783 2.73788097310559 0.0 0.03051799450724063 -0.009253548947890041 0.0
89 1 6.627666479532138 7.777203583229055 0.0 -0.062453354772375694 0.04729020468431198 0.0
90 2 7.887740747978183 16.260942805707945 0.0 -0.03671949116849901 -0.02083076769974224 0.0
91 2 2.6928818134148726 9.635487204454328 0.0 0.026862925920603957 0.05486981262779084 0.0
92 1 14.884413463991667 4.215113866460497 0.0 -0.12016493471989802 -0.013388613053791926 0.0
93 1 9.845073432624368 11.849195366078524 0.0 0.08409105794765419 -0.16893023533388027 0.0
94 1 5.014515917649017 16.53401367492991 0.0 -0.06569429196976526 0.06667926501854002 0.0
95 2 12.085498725400496 2.815533657039813 0.0 0.1173961314960415 -0.01468288822067862 0.0
96 2 10.319612235564845 7.473640813520688 0.0 0.0016316709637990475 0.01887001494552906 0.0
97 1 2.394598937956344 4.535088373889184 0.0 0.03406470420610106 0.022232078652831187 0.0
98 2 3.921939879915637 16.898375119609984 0.0 -0.016897709489672792 0.00041402986880556943 0.0
99 1 8.85234260900682 18.46526296293284 0.0 -0.03278341297383866 -0.14306975495520258 0.0
100 1 18.992083646832523 8.02950777748009 0.0 0.08195712540913257 -0.030188450594033266 0.0
101 1 1.0051221770413452 9.299828491806034 0.0 -0.04675841719617862 0.10806058812421299 0.0
102 1 6.063902519425578 6.740831223307649 0.0 0.05911784114908946 0.02611430186929186 0.0
103 1 18.31843942972601 1.1425984348984906 0.0 -0.0517482515346962 -0.03417009424590149 0.0
104 2 12.815225608448754 9.801547608984794 0.0 0.03684487129656246 -0.06170088359636987 0.0
105 1 17.84787822187339 4.787526132817868 0.0 0.04720733546287626 0.014431017167302293 0.0
106 1 2.3547990365532976 7.922286611615783 0.0 -0.03505935356757234 -0.10900881112969528 0.0
107 1 3.968569249027797 12.169928610718172 0.0 0.040442202858619 0.025229125314959383 0.0
108 2 7.895313549964723 14.140681486712253 0.0 0.04506835368656739 0.044316522172866 0.0
109 1 8.216185673553262 0.7728802835903574 0.0 0.017240059947837304 0.028290232634089 0.0
110 2 18.207253712370417 11.123199489564547 0.0 0.0023116654745342796 0.10034578661331744 0.0
111 1 2.621542614024941 8.562061431352582 0.0 -0.037302866921900574 0.02706287977371918 0.0
112 1 17.620385725205033 18.977488318431217 0.0 0.10732010241220116 0.13168535844304574 0.0
113 1 7.56023086345669 9.59262591442 0.0 0.013180562068332251 -0.016978583626881108 0.0
114 1 12.08589710548864 17.28698866721017 0.0 0.09421125534779509 0.04609315219104019 0.0
115 1 1.091732266572412 17.01357600066076 0.0 0.02858802988149591 0.08306903247085969 0.0
116 2 19.159196020954777 18.323864630969 0.0 0.06155880938368658 -0.027262267743600403 0.0
117 2 14.633424465845895 3.1236014560219547 0.0 -0.009192689489603788 -0.00022848124467679835 0.0
118 1 9.52692744143449 6.742073947561392 0.0 0.0953866800147227 0.018557517893957782 0.0
119 1 10.661967786276639 10.205400781303638 0.0 -0.0057744388824230155 -0.04417056223649673 0.0
120 2 9.027834822540669 7.823838328928039 0.0 0.04998253689334092 -0.01967385852506476 0.0
121 2 6.620166192293583 15.82414297740469 0.0 0.012855666794812638 0.10454975435436467 0.0
122 1 15.716368966576365 8.716140384428515 0.0 -0.04544525512988759 0.16419992951176585 0.0
123 2 0.24956908024892333 8.51962617988732 0.0 0.027753516095440536 -0.07845351296127837 0.0
124 2 0.7037200460969922 18.115766317075817 0.0 -0.022696504312288816 0.028348742188603487 0.0
125 2 4.165794271244387 5.422227777643732 0.0 0.012388103351366012 -0.0376756967191151 0.0
126 2 10.517188998232543 16.602827970402753 0.0 0.001448154989092056 -0.09085226368155198 0.0
127 2 8.034910591710203 5.941284532351955 0.0 0.01927480420910677 0.09703438929954825 0.0
128 2 6.933586323556022 4.135881541644468 0.0 0.0001715057695661376 0.005716740043746036 0.0
129 2 19.14863329646439 6.163555859995008 0.0 -0.005247678359480646 -0.029139802339154655 0.0
130 1 6.872024058669336 1.9953096040763958 0.0 -0.011645612924732695 -0.036522653491527675 0.0
131 1 16.067615248441246 9.310025900382838 0.0 -0.004918424427946479 0.010583493014582602 0.0
132 1 18.813808528662932 10.222803472813442 0.0 0.030282040802598095 0.08365629787521087 0.0
133 2 1.2627410671630301 7.631419052359156 0.0 -0.0037449481767443233 0.03660971329351676 0.0
134 2 1.0671314359382533 13.250887847655633 0.0 -0.06154719154248026 -7.777503084469748e-5 0.0
135 2 12.943852126191599 11.068443633770418 0.0 -0.0455890178792798 0.004408700865045092 0.0
136 1 14.91384747360419 10.826966726194174 0.0 0.017077449789980822 -0.017278639604397125 0.0
137 2 11.641923417036974 9.250522163643765 0.0 -0.032215920214235305 0.048589700522757656 0.0
138 1 12.806605061727115 13.952235447756378 0.0 -0.03795401558589265 -0.04918287005917044 0.0
139 1 14.852163586264917 19.32951258540598 0.0 0.10203139250012777 0.032456546837294535 0.0
140 2 19.6784471375955 3.8768793345173247 0.0 0.10682861017450737 0.031852191049890684 0.0
141 2 18.896878651533807 16.27169064167734 0.0 0.006243313270599338 0.03182956099676606 0.0
142 2 13.357846076631915 2.995382171712217 0.0 0.009859219226020373 -7.431375451351663e-5 0.0
143 1 1.622461674105131 14.511781194733102 0.0 -0.057628922435434986 0.06575102142681392 0.0
144 1 8.194478304236702 18.626867311908725 0.0 -0.06039253228333207 -0.024881503504708958 0.0
145 1 7.206412842639936 5.192648285372646 0.0 -0.011543752568255024 0.05909458045102665 0.0
146 2 17.065463783035927 18.003185146933536 0.0 -0.08723881894648403 -0.03605674438983812 0.0
147 2 5.225800565083568 13.815271701734254 0.0 -0.03246975556233025 0.0004640778058187962 0.0
148 2 13.487033140263264 15.430430893295059 0.0 -0.023317376355024795 -0.031442888599195445 0.0
149 2 5.177321863446451 19.032493458544675 0.0 0.04438417828785204 -0.06260456747486383 0.0
150 2 2.0400608306602113 0.6566307340376789 0.0 0.021807255181002873 -0.0012721585742867846 0.0
151 2 19.427232758872737 13.394493129262072 0.0 0.06341524293240791 -0.04325117373816521 0.0
152 1 6.90585766549049 5.786027501593985 0.0 -0.09250575285833498 -0.07595089033096952 0.0
153 2 0.8002798890906428 0.6311400509379317 0.0 -0.03026730285200748 0.05083361803366967 0.0
154 2 11.075917837295561 0.1681465072538819 0.0 0.02671883810829627 -0.008347500059100283 0.0
155 1 12.396466556682931 15.177766718195434 0.0 -0.05527055996755413 0.06652200454754299 0.0
156 1 15.409582250856932 12.029089499571798 0.0 0.0019437056051463857 -0.021189892010610046 0.0
157 2 16.77856507566609 8.501924843130519 0.0 -0.06649391019428429 -0.01898576115156438 0.0
158 2 14.874496130240718 8.032455517238985 0.0 -0.02004538613813662 0.10365003378967276 0.0
159 1 15.590774660522978 2.5305094760710767 0.0 -0.07256817343064513 -0.14606837008384282 0.0
160 1 6.291180435394874 19.05538469482658 0.0 -0.05502004717003508 -0.01520192982929511 0.0
161 2 12.455494741999257 7.324395875067876 0.0 -0.048030081170092206 -0.04281855608927242 0.0
162 1 1.9614077054772083 8.574338677220338 0.0 -0.00997238379633898 0.03544965816865988 0.0
163 2 16.688402364432314 13.096466528145783 0.0 -0.0008685909692159455 0.009082734961933214 0.0
164 1 7.531697508488795 0.859430588152517 0.0 -0.18613567565397104 0.12305539432631772 0.0
165 2 19.30976277472394 15.11348855057727 0.0 0.06271318922948715 0.01698799163918015 0.0
166 1 15.337244069120269 0.004013576633665184 0.0 0.08646292117324021 0.033048480729312026 0.0
167 2 13.964575986053921 10.30800254679886 0.0 -0.011316809747728036 0.02342487898590564 0.0
168 1 9.798859537329458 3.1849580402456943 0.0 -0.09130878869643316 -0.07353147712617601 0.0
169 1 16.11350056380171 3.709040566001602 0.0 -0.07615795428780531 -0.050250201926336883 0.0
170 1 4.103799890085437 1.6326413611980188 0.0 -0.1792554634045056 0.1747656121074563 0.0
171 1 5.842482191880394 3.861899677499388 0.0 0.023203857953318058 -0.031706290099236034 0.0
172 1 10.224800592874889 15.569387351094642 0.0 0.044454436457803705 0.03185120902229409 0.0
173 2 16.16809899914435 7.338429578746314 0.0 0.14048505368290332 -0.062450462932418564 0.0
174 1 7.792823118351317 10.244507506898596 0.0 -0.05113044631887303 -0.013607728406440905 0.0
175 2 3.7594529552437925 10.28880776148037 0.0 -0.06813603761897989 0.07547098241669009 0.0
176 2 16.07568808695788 1.5374552999824502 0.0 -0.10105435006569954 -0.08957395542945236 0.0
177 1 10.606806194154657 9.537579719690997 0.0 0.06960479882536945 -0.11389497265568001 0.0
178 1 2.8455343597713885 16.47423823286469 0.0 0.0787397180619742 0.027239746536665575 0.0
179 2 1.3260382041842746 4.1805210602839935 0.0 -0.02048679486759558 0.04404142232035942 0.0
180 2 15.898121896441761 10.391795382217582 0.0 0.03739204772734662 -0.010326631887040078 0.0
181 1 1.155969012950969 15.834270062315264 0.0 0.06815914506235467 0.15508415695169633 0.0
182 2 9.282954544834677 16.197625020532545 0.0 0.10484560719728149 0.009767649893907129 0.0
183 1 10.05260352903336 9.170333436146406 0.0 -0.12777727108648956 -0.015248620644208935 0.0
184 1 11.069157154354222 8.28133512687221 0.0 0.06798695350752355 -0.051651190882491545 0.0
185 1 2.4771181627834196 3.857204953252821 0.0 0.11383298125030178 0.02837208623644673 0.0
186 1 15.626509231331884 14.53206417597574 0.0 0.04113509066905155 0.032828707789187866 0.0
187 1 3.56000077876473 2.025884282746548 0.0 -0.06183450480958975 0.11114435850621111 0.0
188 1 14.899962414814734 18.676048660534082 0.0 0.032383241756486845 0.14655089692097664 0.0
189 2 13.471357866811228 6.368543059145791 0.0 -0.009777501265151001 -0.006846163865327105 0.0
190 1 4.428008710297624 11.709411531022473 0.0 -0.10210632642590889 -0.14409740940855034 0.0
191 2 5.918832369557916 1.4985653916892319 0.0 -0.037250900570774854 -0.05299357179116591 0.0
192 2 12.126951794681341 6.153561617552059 0.0 0.05705137485792284 -0.02241471625136596 0.0
193 1 5.612073012322136 6.2016674105410186 0.0 -0.0024899405153321888 -0.07034473318736942 0.0
194 1 14.182284028383304 18.84380823289158 0.0 -0.014237949272031624 0.08108265687386634 0.0
195 2 3.3215932471552825 14.87033070857906 0.0 0.022560715230641393 0.051836762445195646 0.0
196 1 6.317530575345491 13.652854782110854 0.0 0.08921051130234688 0.1357210749877496 0.0
197 1 3.394976381158863 6.957044901498897 0.0 -0.030818283763513296 -0.005860397097235507 0.0
198 2 6.042996960858477 2.766232486905407 0.0 -0.0010314621339624914 0.08993336393898 0.0
199 2 8.740847834300638 11.733040539533897 0.0 0.01981610015425083 -0.058477502903619444 0.0
200 1 18.304940859603274 19.122777051724658 0.0 -0.07004353273767557 -0.15674634483703773 0.0
201 2 7.543058764820012 19.518697724665337 0.0 0.015130409745355148 0.015564915304483474 0.0
202 2 15.48155188400478 13.12864888551001 0.0 -0.11159294494788002 0.08156983391177532 0.0
203 2 17.71863406330386 16.747527823602407 0.0 -0.008723753075542974 -0.0012370489808394228 0.0
204 1 15.448865806833071 4.5482531726067865 0.0 0.059692074147258634 -0.004800978295370619 0.0
205 2 1.5556529196885371 19.132257169569318 0.0 0.005267546457294374 0.03426875143281949 0.0
206 1 19.134071325355933 2.890909530335149 0.0 -0.06751672504554639 -0.005061344287745336 0.0
207 1 2.251267276863906 6.326337049509435 0.0 -0.04658577321738246 0.008301752435628286 0.0
208 2 17.818699441765872 9.684696080766916 0.0 0.019525171128699784 -0.05901221044731107 0.0
209 1 4.563008347048089 14.682906756913209 0.0 0.01890585088802725 -0.028893902886383944 0.0
210 1 1.8596034801651056 2.712892638139381 0.0 -0.09524150568170452 -0.17354089528658528 0.0
211 1 5.536412000244999 17.00465025529607 0.0 0.07629502573515748 -0.06282679747724979 0.0
212 1 3.883318117368992 12.850868615044268 0.0 0.06282597681930958 -0.0120210497822358 0.0
213 2 18.88908247111083 12.233004506322898 0.0 0.02352681046101765 -0.15531531005989013 0.0
214 1 4.616318268727279 15.92771450273209 0.0 0.08587301285934877 -0.09190850361270578 0.0
215 1 16.326330752445013 14.6884094520828 0.0 0.05020812295353909 -0.02705165389077559 0.0
216 1 8.226076147598288 9.486821170499184 0.0 0.002426927586896179 0.002497425633299579 0.0
217 1 2.822476986161355 6.650650302730392 0.0 0.010398057970494081 -0.09470338244615262 0.0
218 1 3.9191577958026786 15.820345861918877 0.0 -0.014804643753637287 0.058415487952599356 0.0
219 1 7.904307395638642 10.929149998680728 0.0 -0.06864627248536562 0.06613059789155862 0.0
220 1 15.699192332705765 3.193475575060366 0.0 0.15918408584098728 0.05060606628417044 0.0
221 2 0.16742985723147408 9.958505348621037 0.0 -0.03898558774198256 0.03859508730195104 0.0
222 2 4.989509151160141 12.608707125317853 0.0 -0.04720100532535496 -0.04121139975738237 0.0
223 1 3.4905776026630595 7.598504030395138 0.0 -0.14371552173931768 -0.03507183428819944 0.0
224 1 16.30019061257661 18.95653368274684 0.0 -0.0459199911560177 -0.06809608112513237 0.0
225 1 3.8775090849059897 2.616676898126617 0.0 0.09766465949370665 -0.010998077050451204 0.0
226 1 11.462457695917264 17.529538518745106 0.0 -0.09633400064146616 0.0821260467100391 0.0
227 1 16.783183206942002 5.5892305493487475 0.0 -0.10085148691920452 0.12907903606509322 0.0
228 1 9.42160362108877 8.866211291988302 0.0 -0.10126968337883477 -0.029770844703758955 0.0
229 2 3.109051104892302 13.634363934128721 0.0 -0.007855173580447565 0.03809342016713529 0.0
230 1 17.984588215757473 0.5561541231368007 0.0 0.11150321667966324 -0.037697507580983294 0.0
231 1 8.76196784373801 13.450565364231819 0.0 -0.08080018631517785 0.06058483102521401 0.0
232 2 17.950574221691628 13.01649678590234 0.0 -0.025434103295084214 -0.012178887566245505 0.0
233 2 15.90667661765186 15.68716273078847 0.0 -0.018211757365316137 0.08558002516238893 0.0
234 1 1.3160892989563517 8.715162864905448 0.0 0.05068947673150148 0.006481510352514746 0.0
235 1 11.387918448169696 7.625433215940237 0.0 -0.06985620706335274 0.014614518084789972 0.0
236 1 4.301361957706794 15.303120853013308 0.0 -0.14233679466420757 0.037743462613913994 0.0
237 2 5.8965562206982085 10.081043200004494 0.0 0.05314041935195185 -0.01044969273751109 0.0
238 2 0.40937256437052905 5.0365412602007895 0.0 -0.0378032864663 0.026550186243621005 0.0
239 1 4.788179876560762 1.5658474900535682 0.0 -0.007736015466987654 -0.09598067725782469 0.0
240 1 8.97292883056611 14.115880491850488 0.0 -0.032835915275606295 0.03842429628244682 0.0
241 1 1.8669101068375078 10.356121724823785 0.0 0.07223386949886824 -0.1449200078026147 0.0
242 2 11.759930521515106 14.283758309937879 0.0 -0.018594928374539948 -0.0026077475739220085 0.0
243 1 9.488228166746234 9.521688682522843 0.0 0.03312583292954534 0.0907474040092581 0.0
244 2 11.912880282696085 11.847545990122876 0.0 -0.0013357638196741563 0.0037650382493331796 0.0
245 2 6.106677971142865 5.027310405800732 0.0 -0.02578550051173146 -0.02333806917232644 0.0
246 2 12.328787289351284 0.6326641117202451 0.0 -0.017620692957462155 -0.029695518707888453 0.0
247 1 4.477819530729539 11.067531201756932 0.0 -0.0007393466900079699 0.01862626077625886 0.0
248 2 13.160023298424885 19.45263015173974 0.0 -0.006060090352967517 -0.05714423725930248 0.0
249 2 14.08439271760686 16.495999347190345 0.0 0.005829401246267845 0.04995233119921513 0.0
250 2 0.8256451620149862 2.9986364328683623 0.0 0.08388844326377842 -0.028819976219157373 0.0
251 1 7.175916014880448 10.507837296166912 0.0 -0.07170237327496841 0.06675357842718946 0.0
252 2 10.390686800423389 17.808910366622314 0.0 0.0916328819204707 -0.12910442426422858 0.0
253 1 15.506981802546063 19.067195356158184 0.0 0.019478242923806535 0.010243171563232411 0.0
254 1 15.456938412509757 3.8573898627895478 0.0 -0.027312448460186656 -0.26064658586497447 0.0
255 1 4.03569689068029 7.160164472754085 0.0 0.010660281002690744 -0.12045487051870796 0.0
256 2 13.683736946976076 7.655950134840594 0.0 -0.0795367951104276 -0.011181245319306962 0.0
257 1 16.987783907670362 15.859645470157066 0.0 -0.04590168618839446 -0.0351180190923434 0.0
258 2 6.704095298643089 8.852141551134793 0.0 0.07443267619829956 -0.027840697180912186 0.0
259 2 1.8961889158166825 17.757324571872836 0.0 -0.008463163151735387 -0.01329750012617252 0.0
260 2 2.235267760862309 15.569985214433324 0.0 -0.07100073776101812 -0.013343528134313486 0.0
261 2 14.989317768505245 9.546834199153272 0.0 0.004707276425350543 0.12421746870133253 0.0
262 1 1.9830664447509434 13.845917655693345 0.0 -0.003242408707891299 0.10852352324024697 0.0
263 2 18.053240580512966 2.590427263436321 0.0 0.03625901398312303 0.051574997692150196 0.0
264 2 13.89411484497926 8.980853120606541 0.0 -0.015701717924767728 -0.12143243246833238 0.0
265 1 3.2068073652195674 2.7212240262241547 0.0 -0.1385417903830761 0.02535482914653522 0.0
266 2 8.885158884883493 10.415904077726715 0.0 -0.048180469386347194 -0.0447848861143581 0.0
267 2 11.319514931506504 3.850449338435141 0.0 0.0084626933543635 0.07327582079557955 0.0
268 1 9.698770035108907 11.170069812291198 0.0 0.07125772553127936 0.14997620247990867 0.0
269 2 7.166779712953284 6.838127962526054 0.0 -0.05759781707464337 -0.010403983599134805 0.0
270 2 6.493296952570231 0.3732815900450078 0.0 -0.035976965681246274 0.08214974392775548 0.0
271 2 10.526047851540254 6.174578789415524 0.0 -0.03550931722642476 -0.02706235402140235 0.0
272 1 11.418787678306657 1.2131284819588004 0.0 0.10336972200798912 0.05640838648519217 0.0
273 2 1.6971406906842168 12.060560989957423 0.0 0.004951009424612568 0.05338710668817475 0.0
274 2 10.42932221460873 4.834879345635238 0.0 0.019537889707615594 -0.03252280753763982 0.0
275 1 2.806263576079314 17.14077298920958 0.0 0.04900639186765999 -0.012483139669742398 0.0
276 1 4.9502877814661295 17.301223516321073 0.0 0.06804740726518832 -0.04700656651914053 0.0
277 1 7.935064426207028 7.6127127849710705 0.0 -0.08377828260653634 0.035645947488457695 0.0
278 2 11.718569379566116 5.008093314607477 0.0 -0.018316834510419558 -0.06632489405054688 0.0
279 1 7.015046135671659 1.3269328761081038 0.0 0.02569409932514203 -0.04416481632041359 0.0
280 2 0.012908453921542619 1.9676525098786382 0.0 -0.023079592700922063 -0.0433053156141208 0.0
281 2 8.748857940776652 2.8121530236284045 0.0 -0.07530310863666553 -0.025560442943160632 0.0
282 1 11.739004488517498 8.173822892676764 0.0 0.019084057282524092 -0.0335602882754559 0.0
283 2 12.993725983431608 5.212531528002596 0.0 0.023565929404486718 0.027909908136063834 0.0
284 2 17.983940821178287 8.377562794518973 0.0 -0.043621352022160435 0.05585858567990091 0.0
285 2 10.399583917862566 1.575787104086278 0.0 0.04252297897213672 0.011777313634922197 0.0
286 2 4.799956704401861 3.262343746118905 0.0 0.03722361691570781 0.06504135371390188 0.0
287 1 2.5128050834719047 2.9061646825964527 0.0 -0.011178102811126455 -0.09020806581787777 0.0
288 1 17.297981373007534 14.603875077735555 0.0 -0.006619305656557238 0.032877577781514435 0.0
289 1 1.6739611531658756 9.292953375194571 0.0 0.02432187807276083 0.04493697228360632 0.0
290 1 5.7088246801516505 16.385581179707717 0.0 0.05974612037663408 -0.039425302430785354 0.0
291 1 16.755141664348532 14.19789981696778 0.0 -0.05064767899481275 0.09379418504741141 0.0
292 2 9.245648146556944 17.4293513690578 0.0 -0.02524154474426476 0.021913982891187424 0.0
293 1 15.915002326230532 5.041151483034711 0.0 -0.03395338973613022 0.06048110452822216 0.0
294 1 4.311106806036647 6.538922451200236 0.0 -0.16319771044185857 -0.008266920588003147 0.0
295 1 0.6059132849641523 15.438630135884635 0.0 0.003417704548753169 -0.009237904267509029 0.0
296 1 15.029048713958261 14.13734489520666 0.0 -0.020945260580341008 0.03570164338485613 0.0
297 1 8.445516281102506 8.769519857869787 0.0 0.06915964709916415 -0.10293299113108657 0.0
298 1 1.3398802057502672 9.902763297492058 0.0 0.10475662112366271 0.058035857399010175 0.0
299 2 9.325143722340947 5.652446889646933 0.0 -0.036686611677922525 -0.052790970024561894 0.0
300 2 19.473085641639386 11.111338948567836 0.0 0.028953502208362306 0.031384833451347155 0.0
301 2 17.055735704511893 10.696595914685473 0.0 -0.026499554381461874 0.026845312697822286 0.0
302 2 14.315084535800189 11.752220461651346 0.0 0.01053461630873349 -0.1188720813583121 0.0
303 2 2.8429398140115825 19.424441293248123 0.0 -0.09719977267539436 0.01875210922092317 0.0
304 2 7.32306307445463 2.9629146513990587 0.0 0.028878465695186085 -0.02709886996474369 0.0
305 2 11.36716808328029 15.648266916756564 0.0 0.04279777677886841 0.02330247538356891 0.0
306 2 15.775649864393861 6.12607778814619 0.0 -0.05073843757549362 -0.086037038053776 0.0
307 2 10.833548899200025 2.7166982582224763 0.0 0.011457542475854917 -0.044500921033555324 0.0
308 1 16.10745116555504 4.3770187060306185 0.0 0.08895633458760718 0.05409456693687315 0.0
309 2 3.272998706124727 0.8921055673056898 0.0 0.0132294142311007 -0.027532981257354497 0.0
310 1 17.21365006162647 6.8476196423612645 0.0 0.029278455678525946 -0.011715094421703001 0.0
311 2 13.144377301986355 12.30608689156565 0.0 -0.0009553152673471767 -0.03195103227475922 0.0
312 1 3.6527099795098463 6.363899617536012 0.0 0.016698957534458755 0.0387431396460955 0.0
313 1 3.710870592295565 9.18542290384851 0.0 0.022274375660520207 0.08607520552626872 0.0
314 2 15.281051321898486 16.773361850480388 0.0 0.03213562623008379 0.066882103537078 0.0
315 2 2.9442514530674155 5.502448673615874 0.0 -0.07157302021472282 0.10569167709044677 0.0
316 1 3.7737790165477434 11.478482149571063 0.0 0.025645248651400752 0.0016606876785162364 0.0
317 2 10.788039053170131 11.308470527977473 0.0 -0.059459386841758506 0.02722826963021829 0.0
318 2 16.500352878358516 16.883255969318473 0.0 -0.025793764403016204 0.009484367521481985 0.0
319 1 17.22578530734053 5.055544690183456 0.0 0.09682284616139489 -0.012473514359635318 0.0
320 2 0.017150120805586606 7.288214197067383 0.0 0.016021878539191785 -0.028343614951878666 0.0
321 1 11.588144105903986 16.838966153780863 0.0 -0.05603857134200405 -0.019256754432149567 0.0
322 1 4.806673356877066 9.861114591846276 0.0 0.04731961711842224 -0.077575860160325 0.0
323 1 7.804548033909433 8.954393001495601 0.0 0.07468073554235301 0.00040893761731916807 0.0