ITEM: TIMESTEP
0
ITEM: NUMBER OF ATOMS
400
ITEM: BOX BOUNDS xy xz yz pp pp pp
0.0 19.7609 0.0
0.0 19.7609 0.0
0.0 10.0 0.0
ITEM: ATOMS id type x y z vx vy vz
1 1 13.233180092309475 19.33553747633928 0.0 -0.13387144089825365 0.017501508760602143 0.0
2 2 11.457839168236841 14.71452199506669 0.0 -0.06253222032446358 0.08115339840175842 0.0
3 1 0.7447961816241839 2.6589078309539875 0.0 0.023766286234702172 -0.19173872745453877 0.0
4 1 8.289912264180714 12.506464781141567 0.0 0.05473317150894087 -0.02763800490121581 0.0
5 1 4.115726396173996 0.19654772073014 0.0 0.10968486686346003 0.024844266338874824 0.0
6 2 10.539797767694713 19.241584855545398 0.0 -0.011878722799685144 -0.048233607581150736 0.0
7 2 18.08673414577488 18.75115951880026 0.0 0.019362881391946026 0.003980683990680446 0.0
8 1 9.182824867614304 8.491595612874361 0.0 -0.1038201331873299 0.09384965189406497 0.0
9 2 12.626282500974265 12.49728617191841 0.0 -0.10093995529183704 -0.030738774419912723 0.0
10 1 16.772303803378147 11.117776652664217 0.0 -0.044856071934764874 0.1047613507308572 0.0
11 2 17.98761092748226 4.225551531559105 0.0 -0.06892809780610748 -0.0494332611091254 0.0
12 1 2.0262775858125477 19.09636085608376 0.0 0.11145087213265191 0.015030276759760758 0.0
13 2 9.504556587436623 6.751723687128336 0.0 0.023599575300823947 0.1042071886670832 0.0
14 2 6.069203917175368 2.944546725007347 0.0 -0.0319326066516429 0.013982175638744938 0.0
15 2 9.54896206168503 2.9196653945280935 0.0 -0.07709155920657827 0.00929846508921813 0.0
16 1 9.756315930711914 17.069127226103138 0.0 -0.07321986226742964 0.06446534797586569 0.0
17 1 18.010829948933683 1.8105898810258068 0.0 -0.04164587519261776 -0.019497519541700342 0.0
18 2 6.477206110825085 4.196601997032796 0.0 -0.02421394976240334 -0.007615825174511131 0.0
19 1 15.630521848615976 6.84995929996054 0.0 -0.033673142311220886 -0.02998301346577587 0.0
20 1 17.40176851338356 0.5802612885197217 0.0 -0.00838609703322257 -0.016458398425978422 0.0
21 1 17.514591064890535 13.067226139013794 0.0 -0.019125646867608335 -0.04210534529504602 0.0
22 2 16.858385850435482 4.791399875065209 0.0 0.01859286973574517 0.023393302528479654 0.0
23 1 18.44273782963849 10.362138176004615 0.0 -0.011004887391621638 -0.07026347723119807 0.0
24 1 16.467038472601267 13.8694986326543 0.0 0.19668636710332238 0.017822140842245773 0.0
25 1 3.6077431884436857 11.927150067422533 0.0 -0.0816241116185303 -0.007057353482846609 0.0
26 1 13.327278852640593 18.646253607568923 0.0 0.006156500739148517 0.10911158435955937 0.0
27 1 1.3549312688183532 19.23264077579784 0.0 0.014508966750350811 0.04473619853232342 0.0
28 1 4.988589574574439 16.88118061392354 0.0 -0.1318725809924467 -0.05608971806979026 0.0
29 2 0.8075383145491758 3.760247878885156 0.0 0.047525877661492424 -0.02372886244778967 0.0
30 1 2.9593061608812756 0.14014312446213975 0.0 0.028589599598197877 0.12196159971547718 0.0
31 1 5.917885050452753 5.878772252482153 0.0 0.07061578393688335 -0.09911230231898267 0.0
32 2 2.7153695013262698 11.239572716791566 0.0 0.005461996901799569 0.08705515434037149 0.0
33 1 3.057802626556376 1.6312459799643777 0.0 -0.029470612156278143 0.02288517788478432 0.0
34 1 19.00277738046286 15.13222623033178 0.0 0.04752452488603038 0.07418413003170043 0.0
35 1 18.30224666436325 15.171741958312294 0.0 0.03834229757642996 0.033423076526606456 0.0
36 2 5.460865638850023 14.267303404175623 0.0 -0.11719104728664421 0.018153463015531446 0.0
37 1 10.38911592987452 7.416216576080094 0.0 -0.05736740693143964 0.048361933294893376 0.0
38 2 8.926822709127823 10.184110566965716 0.0 -0.04574186355865492 -0.02631985006091035 0.0
39 2 13.354542181192746 3.127487845001819 0.0 -0.0431834528032169 -0.035736336737935116 0.0
40 1 7.15993699514936 6.51437212114527 0.0 0.06566643752790273 -0.06169104237725391 0.0
41 2 5.430471709021342 8.883798379359442 0.0 0.010405508275063055 -0.017401659028846907 0.0
42 1 10.60661255942323 4.11402979234216 0.0 0.17526075268032915 -0.03937903377342423 0.0
43 1 5.954220718381335 6.550032786937232 0.0 -0.06739682145194825 0.09643815235677419 0.0
44 2 6.770661442850403 14.277431506201284 0.0 0.01270706454477775 -0.04838346062735467 0.0
45 1 0.7612886820718985 12.1725402731626 0.0 -0.03585167582396214 0.008342863445075632 0.0
46 1 10.390737865867662 4.853798332899659 0.0 -0.01739137876604798 0.06072329757138887 0.0
47 2 15.910458100929567 15.499608065000459 0.0 -0.08404418651073048 -0.08657201137878606 0.0
48 2 1.5469850543554342 8.082933900289014 0.0 -0.07258366828045305 -0.045975672115659144 0.0
49 1 4.29358370937491 9.40962209091311 0.0 -0.07810704640855799 -0.1046822011069613 0.0
50 2 0.8890867283928691 15.805362887326892 0.0 0.012782228489095734 -0.07047399280289578 0.0
51 1 1.8110838585646936 15.169740009092795 0.0 0.0021357894757295845 -0.02501950370876039 0.0
52 2 11.906616444599834 9.292155792201129 0.0 -0.004277980642033432 -0.09742030111438249 0.0
53 2 12.693457110868563 10.365990669134648 0.0 -0.12838759772452682 -0.053792818750756394 0.0
54 1 4.452775683909143 13.770047976053673 0.0 0.04843797439179909 0.014836347087274927 0.0
55 1 13.75909761767178 14.694539336292857 0.0 -0.06092185809102611 0.042130876412990556 0.0
56 1 2.45036253225391 1.987605827414633 0.0 0.03996545055071867 -0.05252534566027749 0.0
57 1 8.891151854408776 9.102422497003383 0.0 0.10864100336540317 -0.06836789145031763 0.0
58 2 12.61361487670887 5.187999426116973 0.0 0.011728164584955124 0.02459360327415603 0.0
59 2 13.547092505231808 4.378374296087782 0.0 -0.07992892932595998 -0.02108714918531577 0.0
60 1 9.103781322617014 16.867794496513167 0.0 -0.1460685593121051 0.10973694851110243 0.0
61 2 10.13718742595197 10.270175907784633 0.0 0.019263884814798824 0.009296900679533324 0.0
62 1 15.795741501697087 5.092668314494321 0.0 -0.03029576715978054 -0.021676486586184162 0.0
63 1 7.187482534219951 13.2194091037429 0.0 0.012022940206193081 0.021362340973137866 0.0
64 2 8.015213886414049 18.75197409635979 0.0 0.13775010091632525 0.032920579138314525 0.0
65 1 16.238498926188743 0.5395074877609843 0.0 0.006482134624912137 0.00017090225301924898 0.0
66 2 10.958212972691163 8.337401287559251 0.0 -0.05772687127041517 -0.04734448256496092 0.0
67 1 7.291928182890947 10.44275411278476 0.0 0.003380496780870182 -0.06390680731664884 0.0
68 2 15.781392786480422 11.533243718534793 0.0 0.0030468909283968234 0.04960099238385607 0.0
69 2 0.2528123459059751 8.25833663201258 0.0 -0.029003243530108167 0.007369653535836139 0.0
70 1 13.683172163883462 18.06615718760388 0.0 -0.008172695104110943 -0.07707487978904419 0.0
71 1 2.592898185561151 17.888646148166508 0.0 -0.06972037592696441 -0.013756128659424301 0.0
72 1 3.5382450448072897 1.181666942050003 0.0 -0.051446046346389364 -0.029067018263651094 0.0
73 1 19.13385023722768 19.169092832842484 0.0 -0.05260842621710262 0.07666619009779918 0.0
74 1 12.84131305813817 16.693746744767505 0.0 -0.07065801160201268 -0.029064307263809323 0.0
75 2 1.1444231598431267 16.989921093406984 0.0 -0.009489879447222077 -0.0016646402711875225 0.0
76 1 3.014860142874678 8.895024103279672 0.0 0.048485531786117204 -0.00800214335177252 0.0
77 1 5.906960533327448 1.175511368288649 0.0 0.14132406254455207 -0.07691542178966382 0.0
78 2 14.851867116893139 10.565243944693115 0.0 -0.027329048239424076 0.034613036074937854 0.0
79 1 8.442395553558022 17.043529480225178 0.0 -0.14812915381078945 -0.06734041575431851 0.0
80 2 15.017958859186063 5.942132581752415 0.0 -0.0217526251417853 0.007011865541820429 0.0
81 1 14.708429834155643 11.618990362376746 0.0 -0.008966358910441303 0.15350088179424118 0.0
82 2 14.646187298991803 15.37530765053485 0.0 0.055757234172456704 0.035101452357429425 0.0
83 1 1.2094196719012498 2.1444993638752137 0.0 0.0952360069333363 0.11631577281900585 0.0
84 2 7.269876602621446 3.236515537423334 0.0 0.04183680414324852 -0.005191274483755533 0.0
85 1 18.69921415407768 11.030855623665472 0.0 0.009618332241583474 0.05642424527422819 0.0
86 1 7.794648862111941 8.379913541002045 0.0 0.04864793206855848 0.013742547093472265 0.0
87 1 7.551746435356244 4.304697213789131 0.0 0.1078784382338926 -0.057593176590569804 0.0
88 2 17.479226996746327 8.175812729926994 0.0 0.06793532999538637 -0.015778968736278803 0.0
89 1 2.935592717034994 0.8666732368551203 0.0 -0.0945255897145148 -0.049138484128343846 0.0
90 2 13.822158323929841 12.225942756537323 0.0 -0.042095098193369526 0.14541612601182605 0.0
91 2 11.602081425857135 2.75239931248133 0.0 0.09513670720145946 0.05169701253331508 0.0
92 1 5.350113431839271 6.2527008284996235 0.0 0.028557767476097003 0.07806982445037992 0.0
93 1 16.874271448743457 13.319118582673637 0.0 -0.017907819027485786 -0.07744547187831473 0.0
94 1 2.8701445378563997 17.144503098205956 0.0 -0.06639131857896509 0.12139904262332898 0.0
95 2 11.35217287518128 10.402780308016574 0.0 -0.022475079287640247 -0.020021190910575085 0.0
96 2 13.89287580610207 16.952686388515495 0.0 0.04288998565445266 -0.01603063571506017 0.0
97 1 4.690627300958855 8.075971917882697 0.0 -0.009897782843317113 -0.01056936723203023 0.0
98 2 5.003052760162904 12.806861458907319 0.0 0.046016549710338195 -0.02981587057855743 0.0
99 1 4.808304836735905 15.142912552354764 0.0 -0.09119853038191239 -0.007912026993032674 0.0
100 1 19.715577590660377 1.6252937308250348 0.0 0.06201592909793668 -0.05296434190982257 0.0
101 1 2.4753648646842206 18.585006294482554 0.0 0.020473180919998883 -0.035168905838089834 0.0
102 1 10.421964564443496 6.1454261309753635 0.0 0.11149467859221654 0.06570108657237592 0.0
103 1 7.4998648769290295 7.769859742310018 0.0 -0.10690908260713963 0.0070676871678232245 0.0
104 2 3.9778700501445443 17.299281257301313 0.0 -0.1306671792206743 -0.08355785218727918 0.0
105 1 4.941648212294084 6.80223178868832 0.0 -0.08767523442798572 0.082443271460297 0.0
106 1 8.48656308276012 14.822431469965238 0.0 -0.03222947018256944 -0.10743353762554736 0.0
107 1 2.2818441437378767 8.997595997549286 0.0 -0.010230141577173175 -0.05834810997092102 0.0
108 2 5.752667613366864 7.6168012160881435 0.0 0.002107743035260913 -0.03500989492757251 0.0
109 1 6.191064361193284 15.255076983052673 0.0 -0.0132990266006678 0.0009148046414946981 0.0
110 2 0.4048362882334723 4.953939408704092 0.0 0.05116934193183593 -0.03319139837050615 0.0
111 1 9.125918330807957 15.028673372727145 0.0 -0.00867106936531321 -0.0406189690817742 0.0
112 1 16.246963931877968 19.629677737490724 0.0 0.03829340984001072 -0.07030219273721204 0.0
113 1 18.657841777446738 6.274494435319515 0.0 0.0882117669277455 -0.0732016054673873 0.0
114 1 2.0724865551421017 12.161821493920575 0.0 0.14353915681925297 0.14710149958043328 0.0
115 1 5.293318759404168 0.13500191904344355 0.0 0.07968766032086982 -0.0610882836889069 0.0
116 2 13.371669844855402 13.605841066630958 0.0 0.029951896791962557 0.046488191442566634 0.0
117 2 3.2505409783736052 9.972431404438344 0.0 0.003993986353663529 0.05327379313586391 0.0
118 1 17.71453477526329 9.21169560689471 0.0 0.08098249288891586 0.13461852343966008 0.0
119 1 3.5325514866682326 0.505532531104593 0.0 -0.12966702448578366 -0.14098199086198934 0.0
120 2 8.431054511188202 3.654374235009171 0.0 -0.004566237572286825 -0.07071104476403864 0.0
121 2 9.314978167283464 1.656567193153692 0.0 0.014548486937038614 -0.06280389083302976 0.0
122 1 4.916124562716288 11.724337863158212 0.0 -0.04259533787003471 -0.06821408123041203 0.0
123 2 14.78322721547754 17.813872759000038 0.0 0.04960759715540443 -0.004355679178923326 0.0
124 2 2.173302539301753 16.235081566665514 0.0 0.10283528047307107 -0.03798467928997354 0.0
125 2 15.457865998473663 2.803329047314223 0.0 0.06729679324481028 -0.0026892143167496995 0.0
126 2 1.4828780286853782 18.153731397645288 0.0 -0.009026912686092965 0.027327429533014896 0.0
127 2 2.886114528924058 4.656526064266907 0.0 -0.017605228113279532 0.006711182064568602 0.0
128 2 0.480429250510831 10.335332581552475 0.0 0.02940675843042895 -0.05120381754039197 0.0
129 2 8.122788132627088 13.753912916527907 0.0 -0.06867880555473425 -0.0695294997441155 0.0
130 1 18.42039474073677 1.3075994463685912 0.0 -0.09715668524744489 -0.09226081349013664 0.0
131 1 4.00424313960418 13.200645584524194 0.0 -0.04314121054057388 -0.03694895462953726 0.0
132 1 7.426544460218695 17.768522051665034 0.0 -0.10104183565472806 -0.0360690562538391 0.0
133 2 16.939610299070537 2.013718739152228 0.0 -0.10430858439597071 -0.06667654151680195 0.0
134 2 7.3735913214238895 11.574287493295474 0.0 0.01832798695474335 -0.004485848076017979 0.0
135 2 12.192829567034662 15.833659368551226 0.0 -0.058275468016459823 0.004196256783002724 0.0
136 1 5.260887566815282 2.1861991039056923 0.0 -0.0983061524908211 -0.04408911111043674 0.0
137 2 17.205140256109598 15.379344027999062 0.0 0.07176521442152638 0.05929527175235735 0.0
138 1 6.5562180793967695 6.838791780930268 0.0 -0.06946842181497186 0.03688062062960561 0.0
139 1 4.612157144530445 18.82563620662912 0.0 0.20390583356705788 -0.021652138234224752 0.0
140 2 16.079618146223652 17.624713315883973 0.0 0.08243467058799803 0.046147033343355175 0.0
141 2 16.824726467126048 18.716179208358483 0.0 0.09399171654999822 -0.03375846918292578 0.0
142 2 7.331894374066725 16.670165634077463 0.0 -0.046998880217591694 0.024707041369591586 0.0
143 1 4.722153905273067 0.5039093344372095 0.0 0.07783073742070837 -0.05061853177644112 0.0
144 1 8.873430228542833 12.944903983217712 0.0 0.016247061355613428 -0.013057753365844514 0.0
145 1 17.725992078358605 1.1908954853608198 0.0 0.03633212519476189 -0.06643638154509476 0.0
146 2 3.5832472654710084 7.915482308406045 0.0 -0.022235577759993515 0.08748121599253345 0.0
147 2 13.00002699429221 7.646908338129285 0.0 0.035416831183690135 0.007601764066574397 0.0
148 2 15.20172931653833 16.580296938839027 0.0 -0.05122668470130686 -0.0008212482558877743 0.0
149 2 1.692680807298439 5.01719836028709 0.0 0.06772314194102926 -0.09018044461595184 0.0
150 2 18.76365590404072 17.480215568961928 0.0 -0.0006395072127513095 -0.0184745249600516 0.0
151 2 11.241200961210534 12.475781826910138 0.0 -0.10833524107644821 0.005460379385909334 0.0
152 1 11.650992043791032 16.769419883146632 0.0 -0.013893779293147274 -0.03915708773062831 0.0
153 2 13.068284208644863 8.844860808048747 0.0 -6.503378592383221e-5 0.08517503041836748 0.0
154 2 1.920655776684756 0.40408013744515947 0.0 -0.010714155370527398 -0.0785091334056983 0.0
155 1 10.76853372922353 11.374211581797912 0.0 -0.035732253909810954 0.03204979212683004 0.0
156 1 5.3064451361293 1.5107926232923417 0.0 -0.01638108250617891 0.0008856151961422696 0.0
157 2 6.000079292733377 11.991258722089896 0.0 -0.024437008059013502 -0.02334345312906322 0.0
158 2 16.058124820876863 10.257245904632494 0.0 -0.08715170908014731 -0.023755087177114588 0.0
159 1 5.026919570859271 17.565027194523527 0.0 0.06752436180395553 -0.10455490872354485 0.0
160 1 10.5969307257089 3.3497293945532065 0.0 0.07417910041121459 0.06892224992538606 0.0
161 2 5.182367447070565 10.0857217006367 0.0 -0.013294899087538364 0.01891497148674341 0.0
162 1 1.870843560759545 2.3409193131501027 0.0 -0.029458126196041556 -0.0689551748659471 0.0
163 2 16.862469216716477 12.209372546329174 0.0 0.010174734292792002 0.039118060027931605 0.0
164 1 11.088448901719342 6.01371238007594 0.0 -0.06304411546582175 -0.08909035531180048 0.0
165 2 18.750531880710874 7.976620594361205 0.0 0.05659086777773067 0.02582743411549203 0.0
166 1 7.591382781757243 7.0748977992186415 0.0 -0.03600224702091155 -0.03378966568650284 0.0
167 2 14.344135101750991 18.99764783219508 0.0 -0.019999100537447936 -0.09538657267810446 0.0
168 1 11.7603400416406 5.940048104805198 0.0 -0.12009907269051127 0.05256982558330606 0.0
169 1 7.144740884660538 8.588634157390132 0.0 -0.06831075118695341 -0.02695994984012274 0.0
170 1 4.693544891884736 18.15547367690323 0.0 0.029303403546818957 0.05268048318493334 0.0
171 1 14.642331248415553 8.374063388995024 0.0 -0.049491564341327725 -0.1477261209637998 0.0
172 1 6.764843190896815 17.633042539286624 0.0 0.0941545691966625 -0.07711567721373387 0.0
173 2 2.6972270386497517 5.92312854310085 0.0 0.014912601259370084 0.05087141735340955 0.0
174 1 12.556459137705193 19.308155358847532 0.0 0.041760135584900965 -0.045207702931281055 0.0
175 2 19.553584992493775 14.10643694299484 0.0 0.05138051513319012 0.1281329392735127 0.0
176 2 9.089253365129803 17.964491786426 0.0 0.046409324361907214 -0.06591150246741755 0.0
177 1 4.135899622348427 19.296107215260495 0.0 0.10286506020589312 0.13171841877965068 0.0
178 1 1.8512071284975269 1.6567286324556898 0.0 -0.04364510311184612 -0.09551842879361266 0.0
179 2 11.46179787533831 4.842480924453391 0.0 -0.03646998711740263 0.09280631319567169 0.0
180 2 17.688130010062842 5.732599996145621 0.0 -0.003688233086791894 -0.05741433660562424 0.0
181 1 13.878431774955695 2.1319397634809643 0.0 0.03952649396648892 0.026402184409932465 0.0
182 2 3.7534172658471623 6.715289947673948 0.0 -0.01065920265825073 0.024193117170256174 0.0
183 1 4.588655824849819 16.340231232188284 0.0 -0.06949071462476045 0.0003714492554563295 0.0
184 1 15.033831218707025 7.1529723618791605 0.0 -0.06445166539122606 -0.0514077454559357 0.0
185 1 19.094147431184155 1.350815645649232 0.0 -0.059201346706423734 0.056365749629340406 0.0
186 1 0.16710914069286417 12.495500811485295 0.0 -0.06323511051255 0.03862543347927355 0.0
187 1 14.352822844061672 2.7168395041301268 0.0 0.07486680857450094 0.0056596224507735205 0.0
188 1 5.841013247627631 15.898004851538527 0.0 -0.03724430066284381 -0.07475006950131874 0.0
189 2 11.577267496838433 1.394723982081064 0.0 0.01819000430455884 0.017934620106630474 0.0
190 1 4.290258492031317 11.948293802802365 0.0 0.03062542711655555 -0.04535951342891224 0.0
191 2 4.118135443923551 2.092135565720479 0.0 0.07790944227784505 0.0036091896188968327 0.0
192 2 10.687670817527335 13.640595254784191 0.0 -0.10606518895950275 0.09726032550098737 0.0
193 1 4.735807032319446 1.1683773189937015 0.0 -0.08294938759917073 0.045412450726069226 0.0
194 1 18.263294198967905 9.65402567467646 0.0 0.11237435429395394 0.036153667784895586 0.0
195 2 10.513520290619683 2.1114662009521927 0.0 -0.049197417216909185 0.054087578303851754 0.0
196 1 1.646957573837805 6.181361502687446 0.0 -0.05437404620701828 -0.08805939311666332 0.0
197 1 4.35577990346801 8.70977920486398 0.0 -0.0685723966577843 0.008247789762631685 0.0
198 2 10.18821982954693 0.7293140615566437 0.0 0.05241239914092697 -0.03857596982495757 0.0
199 2 12.768707653291095 0.6499816061002704 0.0 -0.08126331857942758 0.03328584144750475 0.0
200 1 17.43270618070661 11.274391130547343 0.0 -0.09511598024287075 -0.0634700837110058 0.0
201 2 16.70908915411966 16.53920825819526 0.0 0.018069215615569442 -0.04152677255142213 0.0
202 2 5.855610224625163 18.284270200711944 0.0 0.03328455722015914 0.03460693652373587 0.0
203 2 17.30206080820672 10.175557694387154 0.0 0.00977266523426952 0.04162854691400899 0.0
204 1 2.595410182988625 8.3784289524288 0.0 0.016364769328963195 -0.003807567475492569 0.0
205 2 19.65234982535983 0.3830648754937005 0.0 -0.029961740111459922 0.004428086632614211 0.0
206 1 5.251129058820265 11.169674341944003 0.0 0.09255184347310923 0.028906777387663868 0.0
207 1 15.862263590662687 1.783548610697782 0.0 -0.027474695595645776 0.013876318094744076 0.0
208 2 0.26296151992341654 17.89794372239921 0.0 0.022296704394415 0.06357422514678467 0.0
209 1 1.0382943196933898 5.881237752708471 0.0 0.0967827930281088 0.07631132007404147 0.0
210 1 3.0644287193619473 2.961368884165445 0.0 -0.0464843366092349 0.0018565019658979313 0.0
211 1 13.087132082999142 11.417806980262661 0.0 0.1347910157064301 0.00958086414008861 0.0
212 1 10.830550840723076 9.421290343617661 0.0 0.08294833186667594 0.12053463131335265 0.0
213 2 15.694987876765184 8.055164403694969 0.0 0.05807537785634838 0.023371118694089317 0.0
214 1 12.670615024726445 18.652509705113722 0.0 0.041627995241155964 0.02553110212322842 0.0
215 1 11.639094275046345 17.441018496901503 0.0 -0.047517564220136546 0.134849467844606 0.0
216 1 6.511619733609598 15.880111299956615 0.0 0.0009203910229848005 0.10555503623936721 0.0
217 1 1.4137208441958988 12.328625971137091 0.0 -0.1052235973412175 -0.03548606558991443 0.0
218 1 6.204350789806028 16.495332003447107 0.0 0.016348558271635463 0.09340604258190893 0.0
219 1 4.684092867690839 6.17955398760191 0.0 0.1082811861680188 -0.02451050784839842 0.0
220 1 1.3954423734945762 2.8150753719662935 0.0 0.13440855329765258 -0.027971700342680057 0.0
221 2 5.090561775596888 5.15657360108325 0.0 0.034887271174522706 -0.09291723681604408 0.0
222 2 19.26381347222827 3.9798628619035763 0.0 0.013474127047213664 -0.11900012714806717 0.0
223 1 14.286657569455224 14.315116408259732 0.0 0.24906910374907856 0.021321555947987656 0.0
224 1 3.1959555800952995 3.607170961370361 0.0 -0.015786681770336486 0.04059215219020273 0.0
225 1 19.152207594335653 18.51388189709195 0.0 0.17555614481176973 -0.030090250439691803 0.0
226 1 5.340709597968565 0.8072221557268727 0.0 0.000585609853693328 -0.12269737502879992 0.0
227 1 6.527873367840603 6.174274981321821 0.0 -0.08071240534389013 -0.05059976626096476 0.0
228 1 7.649027302532816 12.71314302230855 0.0 -0.10419293100886547 -0.06810699614562091 0.0
229 2 9.305529048159455 19.199375874919134 0.0 -0.02279378202060542 0.043049943562923576 0.0
230 1 0.8867402081043454 19.708327379922007 0.0 0.051613129702818734 0.07250698490684646 0.0
231 1 4.629665874378655 7.406445591885058 0.0 -0.13429937870558092 0.05474482400535772 0.0
232 2 6.272522446734473 10.783615899092311 0.0 0.03725185029887525 0.023489662872524568 0.0
233 2 17.458776001578595 17.57504866589351 0.0 0.03155314440425913 -0.03816795147146056 0.0
234 1 14.01617266241146 8.102314570114556 0.0 0.016951545646558774 -0.1967806911342976 0.0
235 1 2.7301455329441358 19.25324077850199 0.0 -0.052427787802336395 0.04837555136137609 0.0
236 1 6.9779967853096885 7.327595750987572 0.0 -0.009067468558906163 -0.002899380725212249 0.0
237 2 6.981238348001365 2.013267539845422 0.0 0.03477587280085517 0.04263059219794276 0.0
238 2 18.13657567267432 2.896886702504772 0.0 0.05188567222631888 0.05489531396434057 0.0
239 1 12.870915173000876 17.355340891677308 0.0 -0.0040225635642987 -0.03993484168966286 0.0
240 1 18.690585100289447 1.9146548051998435 0.0 -0.007934437605782723 0.08967542974699472 0.0
241 1 11.051769619106585 17.058883861442375 0.0 -0.07195906774059817 -0.014760173805271441 0.0
242 2 9.70904286893332 15.969147577212974 0.0 0.0730660882930614 -0.023589136149765065 0.0
243 1 14.807003518256753 1.195955290110565 0.0 -0.09052707806488407 0.11389466526559457 0.0
244 2 9.35223039798947 13.935993511124117 0.0 0.027569901867084 -0.05880811673627318 0.0
245 2 7.256341005924344 5.379986048510826 0.0 0.03039129940860858 -0.044167083265806796 0.0
246 2 3.3909478925547782 14.076120404068428 0.0 0.021429244395694182 -0.0023206510286928905 0.0
247 1 14.943222669146792 12.254905236746064 0.0 -0.07219348953581578 0.01715667879295713 0.0
248 2 8.438608047181264 4.925179749050675 0.0 0.005835146657231685 0.02873180187651717 0.0
249 2 0.9203299618036723 1.0750067060240618 0.0 0.018453286378997076 0.015103859721711466 0.0
250 2 13.849894059516782 9.86478988254348 0.0 -0.03210228500963934 0.10203343228039295 0.0
251 1 9.056018768149025 0.536256388764567 0.0 0.07377396854245655 -0.05595140532010679 0.0
252 2 0.90180536523971 6.9991291300943255 0.0 -0.10720819286731113 0.07022410983505324 0.0
253 1 7.931084415551419 10.625515644977165 0.0 -0.036571991166695086 0.05289113134090731 0.0
254 1 14.533106982910663 4.884837926023396 0.0 -0.023076162072875696 -0.03444247772590779 0.0
255 1 9.815386365729982 7.878782575010396 0.0 0.032609284916413926 -0.016155473071239646 0.0
256 2 13.97396371797791 0.4401889962451947 0.0 -0.10228150381992435 0.07930353008024572 0.0
257 1 16.47522541802162 14.543155593839014 0.0 0.21014670554722653 -0.020692587770137327 0.0
258 2 13.771222123775168 5.651515053154983 0.0 -0.11590009750706917 0.012369525132497006 0.0
259 2 15.818558276343534 12.951289533811291 0.0 0.022865313507083183 0.0031323955861278737 0.0
260 2 12.684641761319785 14.681877846347607 0.0 0.02954952715703672 0.053132886295489366 0.0
261 2 18.53785537612494 13.375066166994621 0.0 -0.01606965373335293 -0.024474527410222827 0.0
262 1 19.57208148830194 7.235628552796349 0.0 -0.014909932490643412 -0.07230331192703376 0.0
263 2 4.140929663900423 10.882186185914485 0.0 -0.04553007952453262 0.01463154220027261 0.0
264 2 18.189915051263373 12.088858915035146 0.0 0.001844184375795688 0.024252872397149017 0.0
265 1 13.567110010416148 1.4689347177327416 0.0 0.05354195402143677 0.011202416739617426 0.0
266 2 2.4624806653320555 7.193421523880887 0.0 -0.023435733858177772 -0.021094335282275865 0.0
267 2 6.111941728259044 13.232333664596792 0.0 0.10396758928862056 0.10687544611301497 0.0
268 1 15.161531782917367 1.766946348594915 0.0 -0.06794154669600815 -0.1360298667188842 0.0
269 2 16.639369389965974 7.246904344184338 0.0 0.07434776087502681 0.004004701623396944 0.0
270 2 13.959688140711027 6.876841348723032 0.0 -0.004867985020089442 0.020041186166576647 0.0
271 2 1.9918327017767157 10.118488442016503 0.0 -0.005929830422323588 0.06146338297069313 0.0
272 1 1.871032600280267 12.830511409568675 0.0 0.08673828553231343 0.11545899983562444 0.0
273 2 7.83209863698752 9.486048788009455 0.0 -0.007977490011995948 0.11662315841038379 0.0
274 2 2.8725381847961793 15.145912314174383 0.0 0.013840277177415988 0.02692449718342996 0.0
275 1 5.472717713360022 15.337844191683457 0.0 -0.015306324330037724 -0.06541741952546741 0.0
276 1 13.710679365339765 11.021992293209664 0.0 0.04522964645929182 0.004397620680217856 0.0
277 1 3.995379790353141 15.144988650989129 0.0 -0.06697597297973626 -0.0763074484392334 0.0
278 2 1.3779635312665592 11.235392578248899 0.0 0.13390213730798586 0.03571258082026521 0.0
279 1 2.2056502709360726 17.329574087564758 0.0 0.01857195413453584 0.08444413348255089 0.0
280 2 19.41127266400773 16.252923301234922 0.0 -0.04808444755474514 -0.06539518668991944 0.0
281 2 18.854378651459996 5.183617797577787 0.0 0.056180125855336 0.012003961400755683 0.0
282 1 4.703206216468705 19.586301226393253 0.0 0.053151484994290565 -0.00563887758696182 0.0
283 2 11.59021705842429 18.557165666056584 0.0 0.010761490634958825 0.04612947500242477 0.0
284 2 16.969218726894308 3.36160321685811 0.0 -0.03381901006330615 0.11141169900978053 0.0
285 2 10.949758666222031 15.918240618768412 0.0 0.03101979600380161 0.049631384580699434 0.0
286 2 19.344444654841055 9.393355007915865 0.0 0.09656081724445861 -0.012313339961156852 0.0
287 1 3.042307664231182 2.3011680598026856 0.0 0.06109614314694973 -0.05652298763374712 0.0
288 1 17.406605615400075 19.643998858484384 0.0 -0.07571462661760651 -0.10287665055071847 0.0
289 1 18.58093967197226 14.562694417191224 0.0 0.042826355094096644 0.12703526975957272 0.0
290 1 5.107489805967679 15.89908048123467 0.0 0.025370824851467282 0.14586267560486882 0.0
291 1 10.218160061568868 9.159950723314418 0.0 -0.06924159017560842 -0.08847509543295057 0.0
292 2 13.441594302220016 15.757202493844236 0.0 0.005408719176418634 0.08771129053862714 0.0
293 1 2.455240789659582 1.3343618115530294 0.0 -0.13686695517336844 -0.02338426344343932 0.0
294 1 3.72939563974368 9.00544249827435 0.0 0.09277193974347425 0.08986378740930796 0.0
295 1 14.580547997444487 2.1021822078983976 0.0 -0.1031014988691523 0.03813648344634319 0.0
296 1 8.398312513312655 11.14819701908891 0.0 0.014347427444658702 0.043233994563140296 0.0
297 1 10.609792737353128 6.7781340712749625 0.0 0.09469507376340226 0.04932030389856083 0.0
298 1 14.14830643988762 8.804052806788349 0.0 0.037937812672174845 0.0723104262492696 0.0
299 2 15.16544384349528 9.316567324429757 0.0 0.06741270969004005 -0.07978512046149364 0.0
300 2 2.0599171192082184 13.962148477166208 0.0 -0.016616263956058332 0.009923326568572744 0.0
301 2 19.403741665706484 2.7225540070802787 0.0 0.03605093352533486 0.028897144255018842 0.0
302 2 12.692883024587092 2.0803845619109 0.0 -0.07563872156547542 0.008438799171291393 0.0
303 2 8.278333067786365 6.2240143882790315 0.0 0.029077675542957166 -0.01676777799797417 0.0
304 2 1.1071138858102443 9.244988209836327 0.0 -0.04182094996353084 0.004430225108041178 0.0
305 2 10.417578184860737 17.97548826510444 0.0 0.0012148448694369461 0.06974805684507236 0.0
306 2 0.9173488169818028 14.55992825680787 0.0 0.04859124987702356 -0.1351255525645363 0.0
307 2 2.0975160944959157 3.6638663416822315 0.0 0.01361673100759348 -0.07427217438766445 0.0
308 1 4.408607621557305 3.1679530275457632 0.0 0.04705298972091198 -0.10409227801553432 0.0
309 2 6.927345679291997 0.7936324047179543 0.0 0.01182007502006145 -0.033258330254901235 0.0
310 1 0.7047914193566938 19.014938327382456 0.0 -0.05648604133011898 0.04969728969633856 0.0
311 2 8.464960170300776 15.946820269149557 0.0 -0.0057763155934410434 0.008156071695488145 0.0
312 1 8.454362508735443 8.60648419966877 0.0 0.024187504738139052 -0.13927757791582449 0.0
313 1 2.45882044064762 2.655637826356613 0.0 -0.02861612598295102 -0.024173023188526804 0.0
314 2 9.51067766935796 5.523458732607149 0.0 0.04612745261101632 -0.026607443695869967 0.0
315 2 16.566520190896775 9.076754645698959 0.0 0.10314912630735454 -0.032539666707095884 0.0
316 1 7.799639598351861 0.10545766488379164 0.0 -0.012484780796049887 -0.1565496714292921 0.0
317 2 11.632118805985147 7.129087865390772 0.0 0.04632151207465792 -0.03149722096697037 0.0
318 2 18.430291420858936 0.23976736020459008 0.0 -0.08468469094206928 -0.024318662963349256 0.0
319 1 19.242021580076983 12.462656856321448 0.0 0.0406987077583516 0.02216973103738705 0.0
320 2 12.302470334352254 3.8919986959146415 0.0 -0.02818734549744322 -0.016248220803879863 0.0
321 1 6.2777878329042975 17.18191791144099 0.0 -0.13179062316577653 -0.16102855830328128 0.0
322 1 5.797045769321925 19.457249170561184 0.0 0.028789080505794755 0.06316772913374306 0.0
323 1 16.180714426287246 1.2046586497958647 0.0 0.03978409011841695 -0.00943823483217334 0.0