ITEM: TIMESTEP
0
ITEM: NUMBER OF ATOMS
400
ITEM: BOX BOUNDS xy xz yz pp pp pp
0.0 19.7609 0.0
0.0 19.7609 0.0
0.0 10.0 0.0
ITEM: ATOMS id type x y z vx vy vz
1 1 16.964474284157806 11.565945449406694 0.0 0.024012970171709714 0.08468813336235849 0.0
2 2 14.797996020359546 15.287691278799006 0.0 0.021005637939742604 0.0006748069948061733 0.0
3 1 3.9427743027616984 18.87683808313782 0.0 -0.08744461940342803 -0.012267927333663848 0.0
4 1 6.837845416096601 7.604219388360616 0.0 0.10661576353757435 -0.073835908796462 0.0
5 1 10.14277167547254 18.191231876533973 0.0 -0.052547489973107216 -0.14146242005424878 0.0
6 2 14.419819279742597 9.317060857809619 0.0 0.05118668340628577 -0.07008285365179089 0.0
7 2 6.804804479657713 14.53425740218953 0.0 0.008205259613377243 0.05975518998036564 0.0
8 1 15.864526885215149 10.20425246368458 0.0 0.0002163266602535516 -0.09342569783089591 0.0
9 2 14.794036096388751 14.006841989707832 0.0 0.026235118871401134 -0.013521472354182145 0.0
10 1 10.410026982620847 9.358977795008462 0.0 0.07412395880523297 0.061947543709343376 0.0
11 2 7.421477125542685 9.129087669771634 0.0 0.03064941268393135 0.0495383419548486 0.0
12 1 3.6697737794939105 14.445615550918493 0.0 -0.01793260249094211 0.024370155438036386 0.0
13 2 2.227301699693564 0.8398202314975887 0.0 0.0010451538969571397 0.005687034294432248 0.0
14 2 16.64469949550001 3.474841438448139 0.0 0.03863243728965782 0.052645501121082704 0.0
15 2 8.761698922216583 1.1495939698488409 0.0 -0.07553350888040074 -0.0007376814389765374 0.0
16 1 1.4976407387378894 16.483199106243124 0.0 0.041638736925268434 0.09116183483008368 0.0
17 1 3.5148842368811914 11.431729158725547 0.0 -0.055814032257918485 0.032496929131125146 0.0
18 2 8.123838400106521 5.70409442337673 0.0 0.002802257689047143 0.00600997851805564 0.0
19 1 1.1414592135962025 18.612524613499154 0.0 0.08068557615250435 0.08656919600816437 0.0
20 1 5.7999071133856575 17.63494732827694 0.0 -0.03896636615265069 -0.033736742443426705 0.0
21 1 17.538012934778752 11.209799366381802 0.0 -0.01343994364302642 -0.06903435206732028 0.0
22 2 13.904968638474848 16.2558605939959 0.0 -0.016675722598807344 0.00851269812985047 0.0
23 1 19.533436134112105 1.3752627486609028 0.0 0.05969166156186976 0.09899963334191472 0.0
24 1 1.1984410234649279 7.903523303231767 0.0 0.06652197802613373 0.009946391242050802 0.0
25 1 3.571400002959325 15.101874808545286 0.0 0.004509892200269396 0.026342628631683258 0.0
26 1 17.16850744329966 17.646499516319015 0.0 -0.04045802441116172 0.10162662278667829 0.0
27 1 15.760912082850306 10.877256004720536 0.0 -0.036249962113451134 -0.033462391784151294 0.0
28 1 6.3547017944551865 8.888400050193114 0.0 0.05962840388782002 -0.04093618678797008 0.0
29 2 9.063387406577938 18.419070519693186 0.0 -0.008103695483542953 0.016999984849766253 0.0
30 1 0.8219436806899371 7.203025672603242 0.0 -0.02619008863125209 -0.15765038684143953 0.0
31 1 16.61333501929418 19.673408749765454 0.0 0.09310417560268676 0.015933508866789865 0.0
32 2 11.310923406422832 11.008303396491984 0.0 0.04823491109905506 -0.04178667523504521 0.0
33 1 15.545306976280473 3.2458159683972148 0.0 -0.08270542269335394 0.05015589757978073 0.0
34 1 6.209623962304377 7.8122921701651515 0.0 0.05770528715703235 0.03181129335452247 0.0
35 1 3.8942412026475903 10.837893130756072 0.0 -0.07599743810093729 0.021312120154228738 0.0
36 2 13.666300096226326 18.578111287521022 0.0 -0.16169965260790697 -0.0049440479970634475 0.0
37 1 9.53557624490522 2.836008239597283 0.0 0.03850565060289445 0.0244550525444304 0.0
38 2 6.778783208064167 18.207543358777396 0.0 -0.0020447062440426982 -0.04504022473730269 0.0
39 2 5.233102282317978 16.014056395818944 0.0 0.03606933205476674 0.07548424612170361 0.0
40 1 16.71686152309361 8.530582774019557 0.0 -0.008026280961402997 -0.028919907082182533 0.0
41 2 15.492673022114456 17.689177511769522 0.0 -0.06974448575360882 -0.007372804894872866 0.0
42 1 6.81429587269073 10.126188609385444 0.0 0.011907714493273294 0.12476052823633037 0.0
43 1 4.587863354531127 19.153240413664516 0.0 0.07545739556869667 -0.029396575737332245 0.0
44 2 12.487591915118559 1.3571214138793877 0.0 0.050233287429045065 -0.0060952606233614795 0.0
45 1 7.5493995514078565 2.7414147630895958 0.0 -0.07561739087105099 0.14288143735542724 0.0
46 1 18.878695951302426 1.2373218945624738 0.0 -0.0479166909475171 0.11652971665299443 0.0
47 2 3.926484992691972 16.123315813885238 0.0 0.03827714389679935 0.004232345169172744 0.0
48 2 12.827862508327518 11.261087949733044 0.0 0.017339098299668464 0.1099821981101635 0.0
49 1 4.053957760904143 19.547487671253425 0.0 0.016928366611613118 -0.030453291863975857 0.0
50 2 8.422076124286944 7.684997383970696 0.0 0.051081109538260804 -0.027396782838612382 0.0
51 1 3.6574261386349285 2.797532483378122 0.0 0.14645640147938696 0.03763793012647617 0.0
52 2 14.549677000674818 2.7810501492964224 0.0 -0.0131318892153441 0.017340247718367553 0.0
53 2 18.26144208139923 19.458650497355233 0.0 0.020151997436698328 -0.028351654507169775 0.0
54 1 2.2938117311360666 4.108747323811389 0.0 0.05146233036091373 -0.03327395566009025 0.0
55 1 4.200705910352267 7.000041391209282 0.0 -0.11242764259265263 0.08204154922462792 0.0
56 1 17.664686844947134 0.6947747248402835 0.0 0.044522227240996394 0.010589500896535549 0.0
57 1 17.565293205785647 2.855716561451888 0.0 -0.04291894379357072 0.01856011203968392 0.0
58 2 17.699127979688722 5.207422726347974 0.0 0.04447209261922476 -0.019324606205867637 0.0
59 2 10.806993356303233 0.6317870165115145 0.0 -0.04705247417515688 0.012724165101182787 0.0
60 1 15.56750225435018 5.83284662310074 0.0 0.025277192071384794 0.14593496652424962 0.0
61 2 3.516933187113911 0.758910580458196 0.0 -0.0601947034711342 -0.039005478380812794 0.0
62 1 16.196072557794487 19.14697445468659 0.0 -0.0682949727642155 0.00788671404963289 0.0
63 1 1.3556726695069181 11.478618611389594 0.0 0.11552691923957271 0.08183713925756246 0.0
64 2 15.313179629995101 11.863397810578617 0.0 0.012678472077105122 -0.02312963042259507 0.0
65 1 12.246117826651767 2.4176225807885223 0.0 -0.09252514513513942 0.11225744542553856 0.0
66 2 6.517989558349316 15.877927258675722 0.0 -0.02713128619384422 0.015653050078192173 0.0
67 1 15.707541974570201 2.576337642298039 0.0 0.015116779140974252 -0.08879139524658157 0.0
68 2 15.836799996510068 6.943860076533756 0.0 -0.03682489270939872 0.05279659530304483 0.0
69 2 4.6880612398529555 14.833387112863358 0.0 -0.07525160172869348 0.033391415918150744 0.0
70 1 10.041635065006039 15.105582389335968 0.0 0.044439473532237025 -0.09624738410197017 0.0
71 1 1.006074395521472 13.863912717658085 0.0 -0.07284886082643927 -0.0779739356557215 0.0
72 1 9.994328110953624 12.884262634448277 0.0 0.06605456242479994 -0.14846258020153472 0.0
73 1 7.777163133026942 11.108282568622304 0.0 -0.028276619590398688 -0.06804057559927644 0.0
74 1 18.04149045715704 12.383937415217947 0.0 0.02146045920728424 -0.10656853220349038 0.0
75 2 18.639045529952075 2.882084238654633 0.0 0.06874200081561435 -0.10623786983215898 0.0
76 1 9.791283036019525 11.087961014535797 0.0 -0.03800894113861284 -0.0034958178838413057 0.0
77 1 0.8217528266451234 14.48655840998686 0.0 0.016786319497123895 0.13313097985396083 0.0
78 2 7.547096684450363 6.797614989758334 0.0 -0.03924717786846646 0.0667011765626651 0.0
79 1 8.964600244590192 15.59965642444899 0.0 0.00789089104929889 -0.004507872847489983 0.0
80 2 2.614565769885249 15.70727553988629 0.0 -0.019970560378354155 0.03682940932535745 0.0
81 1 17.057078336711346 1.1340078157932993 0.0 0.0584601685092744 0.08938382714508432 0.0
82 2 12.322580641931534 13.337109449524483 0.0 0.027898830743300938 0.023239708703724313 0.0
83 1 16.38677697859743 11.97511469071826 0.0 0.022182393350591773 -0.020792203381232287 0.0
84 2 7.7372402293812454 15.400084580695262 0.0 -0.09203242149878268 0.09736247278584143 0.0
85 1 5.977865351697806 12.59266850049201 0.0 0.05547035404064855 0.06953421154722718 0.0
86 1 16.372192323760196 2.437113369699794 0.0 0.09262814514159254 0.021313803613523506 0.0
87 1 6.604273031681219 10.795920071460712 0.0 -0.2938596292021595 -0.004050398391505559 0.0
88 2 4.096034009425539 1.8252483930829755 0.0 0.018053526937932253 -0.023645540997563 0.0
89 1 2.47426894314793 7.964614734199123 0.0 -0.11066071630182661 -0.14831730106088017 0.0
90 2 6.660667538440673 19.492352021488635 0.0 0.04689184082808208 0.012143410708778613 0.0
91 2 18.024228249323798 10.206879648406288 0.0 0.1327511169185657 -0.020892951272177572 0.0
92 1 5.880811569371366 8.409243713736535 0.0 0.005553360011023362 -0.26292992294521655 0.0
93 1 18.36219716567627 0.7726640318722295 0.0 -0.013186802646553527 0.15313956445348587 0.0
94 1 15.658987661430526 1.3536571367332857 0.0 -0.018538617884813906 0.018501889162565507 0.0
95 2 4.337384127435542 13.579575323265429 0.0 -0.07916776239597194 0.05890545173954265 0.0
96 2 9.958244807048898 3.9693054787469952 0.0 0.09568793436705411 0.043922742031499346 0.0
97 1 2.5693539476415532 9.213666391332675 0.0 0.03838837719569607 -0.030757921097536205 0.0
98 2 5.408642756702648 1.7956234927423442 0.0 0.0366883632175623 -0.043445749530612976 0.0
99 1 6.1023016085296105 11.26514809075777 0.0 0.13555913914594236 -0.12868658637722838 0.0
100 1 16.55531423673647 17.898078113856748 0.0 0.00886001571209546 -0.025633278638132216 0.0
101 1 5.4425565496162465 11.388448559431493 0.0 -0.026093840734028487 0.06840303355276203 0.0
102 1 12.421088032342885 15.027988185550894 0.0 0.027711453532145464 -0.10295224709547045 0.0
103 1 16.150311416513624 8.104608408277851 0.0 0.0588770556896937 -0.05678314074152665 0.0
104 2 10.611211442201038 2.860254319187502 0.0 0.1230401332379254 0.017157683862599696 0.0
105 1 8.687988760863457 6.641208342838965 0.0 -0.10502083113454022 -0.06574659077184374 0.0
106 1 2.329127460355069 8.60635656898228 0.0 -0.06491403193916659 0.03179475448194336 0.0
107 1 4.496637447618983 10.53322988269525 0.0 -0.08698772573020948 0.083783905164992 0.0
108 2 6.243555513096439 6.672436810128923 0.0 0.09366035453560582 0.07561620319805269 0.0
109 1 13.459685666828179 3.0758665037753183 0.0 -0.013577560269351197 0.04880110649299366 0.0
110 2 17.834848977134197 6.46007453658354 0.0 -0.09159575122946613 -0.000509513954140894 0.0
111 1 11.374511805796725 18.093679668248523 0.0 0.0365867259610024 -0.051035370339089996 0.0
112 1 12.879594908474289 3.4226686097268453 0.0 0.08168030314018955 -0.040939942220040916 0.0
113 1 2.8581567530104333 3.761158031382579 0.0 -0.06350124572444268 -0.1964010999490587 0.0
114 1 16.75822625164724 1.7973192723614773 0.0 0.05409839905561576 -0.008857421719053404 0.0
115 1 0.14913053526573394 7.295673302687036 0.0 -0.00788897472100963 0.04174265168786509 0.0
116 2 18.218766424182558 13.516482865524194 0.0 0.022078123765012222 0.012274049607196075 0.0
117 2 18.634596299535755 4.200759938289689 0.0 -0.0070260052174360346 -0.04832082894713558 0.0
118 1 16.389474855899053 10.651669179005774 0.0 -0.0973327188994594 0.11594922472337567 0.0
119 1 9.311295912721448 16.196829013945685 0.0 0.1105331889855306 0.032901595905614686 0.0
120 2 7.52182320606973 1.6524488939553132 0.0 0.020101361624563645 0.01004581627941351 0.0
121 2 2.4492630563772995 17.028521977784933 0.0 0.023854887943224694 0.028560169491250946 0.0
122 1 12.256702127154536 3.1472195740180524 0.0 -0.16572735143640466 -0.02018957627279709 0.0
123 2 8.547295188344759 2.36453684627772 0.0 0.0076805853760463574 -0.055313803151662365 0.0
124 2 16.44523387642015 16.772658650679894 0.0 0.04775926215222071 -0.09013248354012532 0.0
125 2 4.886167366400881 12.334315731734556 0.0 0.06986523612475144 0.06006429588842413 0.0
126 2 14.458092697374296 12.768723543055211 0.0 -0.028644930415585506 0.008365963628535056 0.0
127 2 11.938586874967339 6.6634853498146205 0.0 0.046020107441890425 -0.029743918450576844 0.0
128 2 14.11142935814523 11.411068865665504 0.0 0.004897672385087037 -0.029094371449891524 0.0
129 2 11.393483080150904 3.851355399469277 0.0 -0.050673134695529545 -7.666104342805724e-5 0.0
130 1 4.826822361680503 11.120503100361926 0.0 -0.07830352972815278 -0.0051401220490218036 0.0
131 1 3.21506519933689 10.837427489459282 0.0 0.0044102062738404346 0.03689009392789591 0.0
132 1 15.488532354490934 7.995297079035184 0.0 -0.11427370080461643 -0.013645353559587037 0.0
133 2 0.22432880480895778 11.551972761512136 0.0 -0.0456193795292614 0.09410984931461795 0.0
134 2 0.5011768505624294 12.920088669041444 0.0 0.012282907189804373 0.0003160329219750655 0.0
135 2 11.523538168261377 14.33762935580038 0.0 -0.03210895466715857 -0.005676074435785389 0.0
136 1 10.306097354094772 11.54350617830059 0.0 0.03962041540868849 0.10703283989979295 0.0
137 2 13.855052574631301 4.854708841741695 0.0 -0.012604641313847777 -0.03917984163518549 0.0
138 1 8.826913231667147 3.9376308152074975 0.0 0.02197949599659612 0.05470148259994435 0.0
139 1 10.62455667263636 17.71753835214972 0.0 -0.18333695589672538 0.03972505212714152 0.0
140 2 4.652430536848067 9.454998383681733 0.0 0.09830835515415544 -0.03695480231814639 0.0
141 2 13.536470251645545 15.021444287417596 0.0 0.03963567814196138 0.11200852473440022 0.0
142 2 6.409506723917134 0.9711206545385167 0.0 0.032803360763235055 -0.01773953983088901 0.0
143 1 11.894302825482798 16.93470568342779 0.0 0.015315615577537278 -0.025724832348766595 0.0
144 1 19.591781010384615 2.3498732164466105 0.0 0.08350631238647291 -0.020564057207326195 0.0
145 1 17.191188242399896 15.739054641511474 0.0 0.040367813014258735 -0.035424360915224745 0.0
146 2 18.89506673332594 5.548918021179741 0.0 0.010654734902099939 0.03264126146908882 0.0
147 2 1.30924392462969 15.445413882325624 0.0 0.019755483907611875 -0.057993981566687905 0.0
148 2 9.636427294993245 7.903059626520337 0.0 0.0659353444186213 0.0864790767721831 0.0
149 2 19.29427426306479 18.68981653882531 0.0 0.038614143496173294 0.06371638246374764 0.0
150 2 1.9783835545861517 14.36406610272659 0.0 0.048875271802504956 0.06476623216200952 0.0
151 2 13.500108029374521 10.202209901229358 0.0 -0.06477796395488766 0.01076566300035708 0.0
152 1 1.1875756383504505 12.112877235606874 0.0 -0.08783648693058227 -0.02265986332877793 0.0
153 2 3.4455560153920124 8.521984983647847 0.0 0.038647287433722165 0.06068015813192454 0.0
154 2 6.585550995062388 4.232611517137595 0.0 -0.008073386366406518 -0.013928706594762605 0.0
155 1 1.8691970269339873 19.5118677053951 0.0 0.05015006824415679 -0.01988622028918804 0.0
156 1 17.74833142755274 3.5241402478863075 0.0 0.04860238760474596 -0.00325635162849438 0.0
157 2 18.596689722990625 14.789392510544106 0.0 0.09696246166681197 0.05557501258812595 0.0
158 2 13.581955310478774 1.9734020589448757 0.0 0.011619064765712584 -0.022406343710517786 0.0
159 1 15.09500987356734 10.798048686575436 0.0 -0.029005937766057435 -0.05611747768401557 0.0
160 1 0.6825502072048261 19.65777174612251 0.0 0.048113967371042655 -0.01866301051503673 0.0
161 2 18.61756073107836 11.410338713642691 0.0 0.09372243122943123 -0.024307943586059633 0.0
162 1 15.049194443815825 3.735809103741411 0.0 -0.07933777785452674 0.011070025171308225 0.0
163 2 8.209216657030243 10.100412638939568 0.0 -0.010126769378688977 -0.036424541519415723 0.0
164 1 9.109438229539277 10.959922102946662 0.0 0.03632656140372055 0.026443748197568093 0.0
165 2 16.83335099207298 9.675736834576663 0.0 -0.03642983810373935 0.09686294554646459 0.0
166 1 3.3931913434943857 18.437655682513 0.0 0.029811944156491802 0.002246862998882422 0.0
167 2 1.2031099873560738 5.347304514036117 0.0 0.02900466776274993 -0.0287953812487048 0.0
168 1 14.580773571264572 10.398998386457501 0.0 0.04140120076474395 0.04479077805871232 0.0
169 1 0.9238167696854974 1.6946275293363189 0.0 0.06350975200328139 0.03914764010204404 0.0
170 1 16.343107467779358 1.2199017983458003 0.0 0.008158619872012116 0.11261724129502639 0.0
171 1 14.99362399809244 19.098430588663156 0.0 0.03154954616879163 0.030861899962182176 0.0
172 1 14.902754088686835 8.327475106845624 0.0 0.03608944551177317 -0.05463049977839904 0.0
173 2 0.3148427461933457 6.202192155052264 0.0 -0.07301385579457735 0.03816042102268695 0.0
174 1 2.023538697233148 11.348710771909573 0.0 -0.10336812471753165 -0.022071545916591308 0.0
175 2 2.2207855778967733 18.424953760468757 0.0 -0.006456167977774751 -0.02352787843227313 0.0
176 2 14.134153013555522 19.751993180402167 0.0 -0.12653860662434616 -0.021230990570861 0.0
177 1 1.8142488278395468 8.177734815762262 0.0 -0.0058165706870998285 -0.01500146832475293 0.0
178 1 13.783650379813603 3.6764680441112105 0.0 -0.035181330101064466 -0.10666864828407756 0.0
179 2 3.6780893112332635 6.040389087420699 0.0 0.013544627725834901 0.017673979714464157 0.0
180 2 11.070376818047869 13.07053784198627 0.0 -0.06774913100359618 0.05688175434244975 0.0
181 1 15.360873497656213 1.9866126306867449 0.0 0.031847522963204256 -0.014860455743522369 0.0
182 2 13.445419232934755 6.837368332138407 0.0 0.02254416429615281 0.06151740639126129 0.0
183 1 8.72020072200212 14.97844925418974 0.0 -0.04172015593127762 -0.011543761918658276 0.0
184 1 9.843205455219435 5.698842804701169 0.0 0.024520004964579338 0.012318183027886181 0.0
185 1 8.105759590802773 11.696599677981933 0.0 0.02665454897838819 0.06198233193076793 0.0
186 1 10.661265128040615 16.358947557766324 0.0 -0.02977359428268288 0.07681750136330627 0.0
187 1 12.428126390133954 0.022502570315465032 0.0 0.03196859744838664 -0.008054268859899473 0.0
188 1 9.994777900585813 16.254806423975506 0.0 -0.11071889722940047 0.035546776793356716 0.0
189 2 12.820519014694241 9.070282291900895 0.0 0.043061250433828684 0.0022911485231576563 0.0
190 1 16.058056632604806 1.8708247821914932 0.0 -0.01252198511635626 -0.11982855404909044 0.0
191 2 15.809103520143383 13.066853588549575 0.0 -0.06377271445920164 -0.01881288039172008 0.0
192 2 4.975254618544091 6.228799644406203 0.0 0.061358344548316235 -0.05626944893353658 0.0
193 1 8.397462451977006 3.444139449220925 0.0 -0.06816445442455171 -0.20255119685311218 0.0
194 1 8.473969222469623 11.158409655239865 0.0 -0.01612272507653602 0.13055119769320583 0.0
195 2 4.732615317341365 2.889022814217356 0.0 -0.02882985714155456 0.01778918171273655 0.0
196 1 16.66075254504103 0.5918926395365652 0.0 -0.06048178728092202 -0.0002873790504069991 0.0
197 1 12.82810954969486 2.7484903673540595 0.0 0.10056174345597611 0.07314809248860604 0.0
198 2 9.06914177400819 4.969020007556328 0.0 0.0948170656050006 -0.029377493122016325 0.0
199 2 5.627867531976369 18.773067867870026 0.0 0.07104038808242373 0.04764698069635538 0.0
200 1 0.5357342759003958 18.316556626278025 0.0 0.031535272268183166 0.01822215685130446 0.0
201 2 19.291461802973927 8.250002418490581 0.0 -0.008104676660866386 -0.04761491678772889 0.0
202 2 9.184585918068413 12.038705370283292 0.0 0.004867671812123705 -0.08418134606773953 0.0
203 2 3.0242067578990195 13.548110949557437 0.0 -0.018053330439854184 -0.06852314974745438 0.0
204 1 9.729665276225095 0.6206580422781613 0.0 -0.09820966715036826 -0.033523198396010416 0.0
205 2 17.93024613482083 1.8109722563967867 0.0 0.04372181211534243 0.03541026330564732 0.0
206 1 1.3241776419803943 0.19112321773788626 0.0 0.008103179235695318 0.16106595400501655 0.0
207 1 6.695619170754014 8.274457045196614 0.0 0.08133506421994988 -0.027820215861212104 0.0
208 2 5.973731677454947 3.0514087451797076 0.0 -0.002052655053888267 0.02384597069245944 0.0
209 1 10.633046715590853 10.027121953214337 0.0 -0.13463946809217806 0.0148107372597964 0.0
210 1 9.870755581152341 8.944851169410223 0.0 0.0655585748903305 0.008502952719757909 0.0
211 1 16.114962198063605 4.4222459860343735 0.0 -0.051903377327605714 -0.051592863495522105 0.0
212 1 17.833387994595864 17.818873872010986 0.0 -0.138505572513316 -0.027341460769301516 0.0
213 2 9.06746754768492 13.3850503421876 0.0 0.0428304203002642 -0.000550249954102394 0.0
214 1 10.251050995682423 12.267679308083665 0.0 0.02435256236609201 0.04261099148394539 0.0
215 1 3.807217024589511 12.665162164057623 0.0 0.0930062411027109 0.07197476355348564 0.0
216 1 10.840853937404399 11.976382061211371 0.0 0.13867913870179654 -0.004612653788364373 0.0
217 1 10.774844333567492 18.380042614414755 0.0 0.0649405674059075 0.06112169371477126 0.0
218 1 4.664553060346719 16.944386521824057 0.0 -0.02773914623109373 0.01894588165630901 0.0
219 1 9.776717636508286 6.354794995049259 0.0 0.031096232287683545 0.04443056541683115 0.0
220 1 13.17905118907966 4.001702137276728 0.0 -0.08007314735311265 0.03569914709689288 0.0
221 2 5.2387222593520395 4.054904589495215 0.0 -0.0410249342045285 0.0036160045970601113 0.0
222 2 3.6339371884325513 17.3647852686891 0.0 0.06589912241543877 -0.09245390747168172 0.0
223 1 17.543427692569917 15.06071050599454 0.0 -0.11698289492379026 0.06774146609506017 0.0
224 1 19.53359666031665 9.315432089372248 0.0 0.06404633759926627 -0.07570318624799603 0.0
225 1 9.322767955829656 6.850266808697363 0.0 -0.07445649808322904 0.026384038574196876 0.0
226 1 0.7506482300353812 8.427558199510296 0.0 -0.01778107913552005 -0.005629607141222632 0.0
227 1 6.490756139116715 2.0652015233537044 0.0 -0.1435891657678684 -0.06072534417338695 0.0
228 1 13.027706695651874 19.46540481947935 0.0 -0.1255577880973991 -0.04189270732084354 0.0
229 2 16.703623294945793 6.015884094022554 0.0 -0.09987645006671775 0.07059514144074236 0.0
230 1 11.901435481671797 0.4486148082005921 0.0 -0.06254331490336547 -0.009845227559720381 0.0
231 1 15.598790619444976 18.818339434612383 0.0 -0.02291765350163829 0.10596421165345668 0.0
232 2 18.166344331286414 7.725954612649665 0.0 0.0013791723798660344 0.0005759398678858953 0.0
233 2 7.828333470874757 18.96771853516982 0.0 -0.08272680364822663 -0.13803703038315612 0.0
234 1 10.761928804943864 4.777355661870648 0.0 0.0907353025624809 -0.08371099240159183 0.0
235 1 17.878167501468564 15.622750028768966 0.0 0.010602912840540523 0.046726425423174206 0.0
236 1 0.3790515606972762 9.602783543634326 0.0 0.030164729118490035 0.017378067094729163 0.0
237 2 2.3865069600130897 5.851425808859415 0.0 -0.026007327871232538 -0.014749677795172202 0.0
238 2 14.428742652903107 5.978735700462088 0.0 0.0200295617842194 0.08729234417348843 0.0
239 1 16.310046203468 11.311707383371258 0.0 0.07852187285368141 0.016690384326386757 0.0
240 1 5.314098543517852 17.14692524368128 0.0 -0.03184057865281979 0.037460344870962274 0.0
241 1 17.037064148021116 2.4326322819661232 0.0 0.0787166104848929 -0.12875968799024043 0.0
242 2 12.66956625546815 16.125012519632755 0.0 0.04526405328483373 0.020330660957645016 0.0
243 1 3.0301254865723704 14.69010980534609 0.0 -0.09396080655669535 0.011642870336176314 0.0
244 2 1.0095166663059816 10.471265587283796 0.0 -0.08522098459349906 0.0704843161010584 0.0
245 2 17.732983677956582 16.707401187455613 0.0 0.0967746121653383 -0.05514557157487971 0.0
246 2 7.003081888937516 11.885314637364376 0.0 -0.02455314287060644 0.037361610185007124 0.0
247 1 16.88412722439087 15.14255331266929 0.0 -0.0004875168980014037 -0.10019791559946041 0.0
248 2 9.484283414105894 9.959416903615988 0.0 -0.013907267501289566 0.01405339197925493 0.0
249 2 17.058167381777707 14.054927694889443 0.0 0.06665796046125753 0.073825393403678 0.0
250 2 0.09895539748851255 4.745509525017484 0.0 0.0599334679236254 0.03796462021716456 0.0
251 1 2.9630290344506696 7.523940783249649 0.0 0.005182618717058088 -0.012591652626026151 0.0
252 2 11.282200833606627 1.7743603376598767 0.0 0.08250789248574378 -0.02077124342963865 0.0
253 1 9.120298128857891 14.43993586607785 0.0 -0.09754142116567847 -0.16385579735724298 0.0
254 1 2.7071493323843274 11.254649872752942 0.0 -0.028992851190147974 -0.05603708428502647 0.0
255 1 0.18306594457018527 17.745448805550343 0.0 0.029317598089605452 -0.0022828978540545795 0.0
256 2 8.02108317031826 14.129057971854916 0.0 -0.0011526550664195975 -0.0829096245890369 0.0
257 1 3.567876596721934 7.230961233298346 0.0 0.06681888353794271 -0.024313818609444385 0.0
258 2 18.9779647134301 6.799486859172036 0.0 0.06682537148144438 0.012981768919057769 0.0
259 2 0.0504303180126462 15.289290924865517 0.0 -0.11176982569069312 -0.06774090639350948 0.0
260 2 3.1716497542797977 4.840530555663033 0.0 0.06940643076369807 -0.027075713908818706 0.0
261 2 16.984079911726784 7.407239348012114 0.0 -0.027569456239977724 4.3738400640181736e-5 0.0
262 1 15.671085207151739 3.923278704713427 0.0 0.12264132815025507 -0.01780154803296669 0.0
263 2 12.94727879772895 17.379863630315846 0.0 0.031050044463211 -0.03484421029822526 0.0
264 2 10.548362091988272 7.085122126548652 0.0 0.10672382804355043 -0.037355658711695244 0.0
265 1 5.35129625799425 13.867075183890424 0.0 -0.005594244028785679 -0.08630940930414897 0.0
266 2 8.757128734813525 8.911286679120055 0.0 -0.04769147036756639 0.0453541105177365 0.0
267 2 15.916964466037319 14.626798850292962 0.0 0.006535061315202234 -0.022107043263622044 0.0
268 1 1.8017160038114688 11.966785431108459 0.0 -0.059485574797616445 0.0971695243503804 0.0
269 2 4.670640971050207 18.039924552511156 0.0 -0.03593263171480827 -0.02503250646582337 0.0
270 2 15.09172650827358 4.844853206449372 0.0 -0.01676197850140273 0.012966789528821718 0.0
271 2 15.568153399998637 0.2811468563151057 0.0 -0.08185111571609023 -0.014001325342141158 0.0
272 1 4.214319724433388 11.430983428574338 0.0 0.021930495829737866 -0.1251972923517102 0.0
273 2 4.451908627074857 5.061367127941613 0.0 0.012409227759458453 -0.08866277000058899 0.0
274 2 8.01396803531257 12.770115241966753 0.0 0.020184416146263325 -0.06924740958371982 0.0
275 1 14.749820029523837 18.477872047781183 0.0 -0.11149489162843723 -0.07862649678780353 0.0
276 1 11.690849178997189 2.7925480136004617 0.0 0.05740921171133089 -0.006080008508748759 0.0
277 1 16.745602744469288 4.667973691340785 0.0 -0.09310700985874083 -0.10726080174561087 0.0
278 2 11.924051287189558 12.134605335169285 0.0 -0.03966349268190817 -0.005956125995090981 0.0
279 1 10.683419807585741 15.02141947670074 0.0 -0.06700739534139073 -0.14912592388044546 0.0
280 2 8.281989880296697 16.507024897413377 0.0 0.03355563620545262 -0.002776286174149912 0.0
281 2 17.24993729862899 18.773785429759307 0.0 -0.025198964385310073 -0.0062773201546019375 0.0
282 1 12.480394915506299 3.994856300353845 0.0 0.1568310320006821 0.0229162220567255 0.0
283 2 5.21072537011072 7.471067809665058 0.0 0.0005493401615344032 0.008974619416492476 0.0
284 2 10.165248830820321 14.013251571773495 0.0 -0.12587718959817204 -0.0008321856998918487 0.0
285 2 4.924029701675885 0.4770583556355665 0.0 -0.00023540422344908273 0.022064614125542642 0.0
286 2 0.3532912356127473 16.63102699077241 0.0 0.012471752627954167 0.014752876094166924 0.0
287 1 10.294340391354016 10.659856281087885 0.0 0.014654012497846331 0.02701074315357889 0.0
288 1 5.629873519458013 13.206442709792553 0.0 0.005133551895970872 -0.1113789732318999 0.0
289 1 10.161468104109527 5.082414000168383 0.0 -0.1490094194317788 -0.0136525395305664 0.0
290 1 13.030530285367758 0.38081888255739366 0.0 -0.019292324235894026 0.09885483659633129 0.0
291 1 16.4934235769957 15.673790224206964 0.0 0.04144173175222297 0.0736220893140784 0.0
292 2 12.227551836701043 10.1881350671623 0.0 0.05224973062153032 -0.0384018396272457 0.0
293 1 3.109971793981312 3.1377532948803806 0.0 0.002940118549359674 0.021994513427917965 0.0
294 1 7.735574429076767 3.376614892473985 0.0 -0.09425286306614528 0.07606104893082961 0.0
295 1 7.257894309398596 10.665485282294044 0.0 0.06145744454061533 -0.03770382409241436 0.0
296 1 7.36081700306787 8.026972287846775 0.0 0.09486576075812232 -0.01051863553382915 0.0
297 1 5.991732821228383 13.802317975467778 0.0 -0.05517515320801762 -0.04489744182809817 0.0
298 1 17.505629103256663 4.147265120323488 0.0 0.020132719309866327 -0.11583269230680572 0.0
299 2 10.098153716193057 19.299930306841716 0.0 -0.042313185860265376 0.07590662539839017 0.0
300 2 2.8037550670403175 12.317084130587798 0.0 0.02130886816835846 0.004513762553950634 0.0
301 2 10.920266880691027 5.891389502231396 0.0 0.03200891491088527 -0.026988336356606964 0.0
302 2 19.09377973638058 12.601898958265712 0.0 -0.03682481381597344 -0.002249677869295364 0.0
303 2 14.642675936106656 7.247038605122309 0.0 -0.0013541210587961342 0.13322230824600867 0.0
304 2 19.382107658636926 10.402607202084022 0.0 -0.05856488231801075 0.02107079636725033 0.0
305 2 5.62050074002574 10.275187129003152 0.0 -0.11287281888957981 0.05086204313374097 0.0
306 2 19.5864975143367 13.957591825913038 0.0 0.06976758064074841 -0.019772737095750472 0.0
307 2 13.229065897533014 12.444047675045582 0.0 -0.01178357148712392 -9.569592098771709e-5 0.0
308 1 14.407325447611607 3.914307633009053 0.0 0.04291185124973162 0.09828533776767512 0.0
309 2 1.2895668378264222 17.553327662132155 0.0 -0.07467543925236328 -0.027860818304935687 0.0
310 1 2.966509126348886 6.8537209199351 0.0 0.0645245902459006 0.03653414126300965 0.0
311 2 15.123533438815278 16.535889097139624 0.0 0.024618074838831213 -0.03218783224653606 0.0
312 1 11.87079215646117 17.60319127893971 0.0 0.07175715495658351 -0.003270458429465223 0.0
313 1 2.3295814331141607 1.931586577418322 0.0 -0.013236727972374214 -0.057424536938187436 0.0
314 2 14.578295079627555 1.1972381077327794 0.0 -0.00041495539277515534 0.004462516997823503 0.0
315 2 12.621988711025317 7.777263545423986 0.0 -0.05071320149006499 0.007235923588325599 0.0
316 1 2.0921308646832983 4.742516027330961 0.0 0.13202346292778463 0.03362706463747153 0.0
317 2 15.695546596774403 9.11064879543462 0.0 -0.013936486992970686 -0.04782454963535348 0.0
318 2 9.908566257888545 1.766973820808766 0.0 0.01911203690987823 -0.1073631831343322 0.0
319 1 6.922763095116635 2.5738922389921735 0.0 -0.12921602701320276 0.017083230018040317 0.0
320 2 3.9578547222901115 3.8593169363236366 0.0 0.04950662500123216 -0.03827422961545939 0.0
321 1 19.079113655643383 1.8891689584702034 0.0 0.014606477785638075 0.0177661506293917 0.0
322 1 5.2493906655220215 8.56261674004041 0.0 -0.0024797573747225086 -0.06106483755781222 0.0
323 1 9.382368600198099 15.044883147590877 0.0 -0.013895755443290515 0.01241464941935477 0.0