ITEM: TIMESTEP
0
ITEM: NUMBER OF ATOMS
400
ITEM: BOX BOUNDS xy xz yz pp pp pp
0.0 19.7609 0.0
0.0 19.7609 0.0
0.0 10.0 0.0
ITEM: ATOMS id type x y z vx vy vz
1 1 5.583430338541737 4.851349327601286 0.0 -0.12142206532830549 0.1076583492866052 0.0
2 2 3.5905116167104065 5.235364978782122 0.0 -0.014588091251443705 -0.047370386152811486 0.0
3 1 1.3786091696659364 18.196235736933023 0.0 -0.012064219502429962 -0.09300821052553768 0.0
4 1 17.868207799792227 10.218346613001138 0.0 0.011378714310408565 -0.04650597756852996 0.0
5 1 4.673091150027362 19.197682984368118 0.0 0.036047600366190986 0.1081345287448653 0.0
6 2 2.3162522439035973 12.772858473187975 0.0 -0.026376649723663857 0.017860829689230567 0.0
7 2 14.194373003534027 2.409656507944911 0.0 -0.0014201927972576566 0.052299281898195965 0.0
8 1 2.0225927698753594 18.38789132513721 0.0 0.01478644350914568 0.07428399646616272 0.0
9 2 1.563840743168366 4.0591871235703225 0.0 -0.042031005193839344 0.03842801892681329 0.0
10 1 11.757951999653148 2.861339960911311 0.0 0.018892978530278277 0.06539400543080162 0.0
11 2 1.9964020089710535 17.256685052461673 0.0 -0.11297300208093548 -0.03185450085909457 0.0
12 1 8.253599577994775 3.216699651278022 0.0 -0.09228786587696364 -0.012166581982438487 0.0
13 2 2.8218735355227818 7.185793132310874 0.0 -0.017839964189176997 -0.045414033145879724 0.0
14 2 14.123732123840469 1.0948325860608425 0.0 -0.03698514145534527 -0.0881183893901281 0.0
15 2 16.559884577898732 14.592602731455537 0.0 -0.016144548922329787 -0.028067890082805965 0.0
16 1 9.157332478084099 14.213319343405981 0.0 -0.014595991049710974 -0.13001787703291434 0.0
17 1 1.6826371051166915 7.240885654414836 0.0 0.046395238915677844 0.0640853278704679 0.0
18 2 5.594608634483273 18.58803880044916 0.0 -0.054168680568364574 -0.06421454184602812 0.0
19 1 12.942631409938757 17.86265209848795 0.0 0.02486794614906989 -0.0743652919614132 0.0
20 1 9.790220547571028 11.477082384301122 0.0 -0.052153133687337 -0.035448940189279785 0.0
21 1 7.826086308878523 10.182068875175943 0.0 -0.00288516437688023 -0.1336090370769025 0.0
22 2 18.961281616803294 16.463840988577765 0.0 0.10357167412434719 -0.07765230083671572 0.0
23 1 18.808324598611236 9.526711658947367 0.0 0.027711830068591615 -0.003407382532937598 0.0
24 1 10.120572131036662 14.295625099846832 0.0 0.06102172035679526 -0.1129936324147694 0.0
25 1 7.585816785261683 3.1690557299641444 0.0 -0.09773155076213064 -0.05786535101113835 0.0
26 1 2.519035869721509 9.272338640895356 0.0 -0.04535812346035476 -0.1687219935687029 0.0
27 1 11.648343205308871 5.715339566495206 0.0 0.01757538021970031 -0.0034071571700662554 0.0
28 1 10.774240940722335 1.067818103858372 0.0 0.10948396333148011 -0.06398890962528125 0.0
29 2 3.2570686789058154 14.738557814833934 0.0 -0.042737384220758484 0.007869540591679925 0.0
30 1 10.421229893619874 5.323432642517298 0.0 0.11320742537181677 0.08961972098455367 0.0
31 1 10.864283124978423 18.298810866513524 0.0 -0.06843341451602383 -0.055821468422015776 0.0
32 2 14.94704957941552 15.594732697977374 0.0 0.06360789500868169 -0.0984308963806989 0.0
33 1 11.073939654120478 14.377553900306697 0.0 -0.0379741328074668 -0.028323021581444813 0.0
34 1 4.802686918254295 12.73496381143657 0.0 0.01512161676231002 0.030301732346414537 0.0
35 1 19.355351522779365 15.408709605802553 0.0 -0.04513545671474973 0.03716880519808231 0.0
36 2 10.876139038883672 12.809187802446028 0.0 -0.05181398918992611 -0.0660088508626837 0.0
37 1 2.0050544166125595 16.036588435760148 0.0 -0.05481532800408843 -0.03949881409779919 0.0
38 2 0.16006763857343997 13.484852430097746 0.0 -0.07626135083838675 0.04402884722910306 0.0
39 2 15.313024789395707 14.357092767911068 0.0 0.07673102855422818 0.009219634240253353 0.0
40 1 9.595151169765204 14.717683066607586 0.0 -0.0029561383931578913 -0.10508412536848495 0.0
41 2 7.4064794112588865 7.953060638563772 0.0 -0.022123778202852218 0.026967331034701947 0.0
42 1 5.879916034955116 19.684632865741996 0.0 -0.10501555015606873 -0.1989529039632699 0.0
43 1 15.562915555191587 3.9777297619247243 0.0 -0.14220697393115803 0.030972214353291633 0.0
44 2 16.127780915041225 13.321092897328395 0.0 0.08239587380526506 -0.050044508415684905 0.0
45 1 18.05572249477012 15.834614958458543 0.0 -0.12456113144610761 -0.17778519170682033 0.0
46 1 16.767235877050233 18.287646770649 0.0 0.11789636699889605 0.007111865099416871 0.0
47 2 19.589968991245904 1.0342905179729558 0.0 0.008550806151618205 0.04798860759727292 0.0
48 2 11.32113471498745 3.9575426686120756 0.0 0.012873204078422783 0.020342904901399134 0.0
49 1 2.2581192365697023 0.809655880892 0.0 -0.13735546293773707 0.04364853146833809 0.0
50 2 18.331450930775087 1.0577704539301862 0.0 -0.041243505893097325 0.12618555246607252 0.0
51 1 7.802844110866575 3.808720467587606 0.0 -0.02830534016882336 -0.03336439187787436 0.0
52 2 6.603160854715409 14.232142340734779 0.0 -0.01827273410283876 0.026267771955451717 0.0
53 2 0.7535460568106878 9.211591471711845 0.0 -0.023721708546507347 -0.023158410571719936 0.0
54 1 13.801556458289246 4.526195185694568 0.0 -0.04552506410115637 -0.02032833700686184 0.0
55 1 6.532246812031002 12.577669763461254 0.0 -0.03473372606208791 0.057622139967880535 0.0
56 1 1.0931265761665363 10.269088270498969 0.0 -0.12094016462257455 0.02787540366403187 0.0
57 1 12.908747431811147 5.507876247690466 0.0 -0.06757099057693391 0.058157644220549295 0.0
58 2 8.942573624508608 12.203214604078612 0.0 -0.08770376633898641 0.0007178475195168145 0.0
59 2 5.614074008999617 11.144767522639368 0.0 0.0472983081244353 0.0674265570420513 0.0
60 1 14.551767786743955 12.782854547618403 0.0 0.11604713937687981 0.03426613143824749 0.0
61 2 19.6498006422962 17.476782778948728 0.0 0.059674933269472874 0.040558037802844005 0.0
62 1 3.9952574363891586 19.181866227566676 0.0 0.021954859945811173 -0.11891617452645924 0.0
63 1 11.102887080777794 7.63702097163584 0.0 0.05551433621965438 -0.028073878442411528 0.0
64 2 19.05671802270801 11.139305551107144 0.0 -0.07075370480370263 0.03319862794621374 0.0
65 1 16.07747754457649 18.266914426517666 0.0 -0.08655718126426903 -0.01725562783175971 0.0
66 2 0.8492866560851279 7.975887017337443 0.0 -0.04425337743152809 -0.0323165855895327 0.0
67 1 8.203272612193203 1.9650927397828153 0.0 0.04897631771232472 -0.01923287544112748 0.0
68 2 12.86861827082604 14.058924128881685 0.0 -0.02432335978894936 0.015213763926560781 0.0
69 2 7.647446753849374 12.432633031347427 0.0 0.08464107482580478 -0.06825409608643807 0.0
70 1 17.41921324443912 17.039998173883877 0.0 -0.10293167743584884 0.1134165147031859 0.0
71 1 9.230697371172518 4.969757469642744 0.0 0.11413129805283191 -0.0606464978432124 0.0
72 1 3.515747740007279 6.3243573933297 0.0 -0.09757355311854492 -0.03830092735195168 0.0
73 1 8.557656955389655 4.966986786881272 0.0 0.02591687864522237 -0.0749014329499311 0.0
74 1 17.841148891121513 16.496953990358797 0.0 -0.022699398460492536 -0.00860762607225735 0.0
75 2 4.38416630500791 11.625523922131475 0.0 -0.06842462565332469 -0.002216849526191104 0.0
76 1 10.031066465336535 12.12854084917593 0.0 -0.011592834486794606 0.025087674523853815 0.0
77 1 9.780431331039209 7.652743545743795 0.0 0.08857161155480152 0.04405912285294892 0.0
78 2 9.653088278548555 16.370814772874922 0.0 0.01893405043961897 0.060109553896618345 0.0
79 1 17.642453310341487 1.919162647280867 0.0 0.08507906810105102 -0.011759023560783023 0.0
80 2 12.623006211117525 4.39725372493992 0.0 -0.045384516170855004 0.07150850721624327 0.0
81 1 18.42720038059579 18.61851380543241 0.0 0.03772503855696127 0.0658176205193254 0.0
82 2 18.13681351300071 11.97339470963345 0.0 0.01070366922918085 -0.006929325270969034 0.0
83 1 12.717446936338334 9.808269771175464 0.0 0.016265664373991986 -0.08928136814045017 0.0
84 2 5.384132432034491 13.89716859824633 0.0 -0.028384462656347753 -0.023409886073322804 0.0
85 1 6.639503850114029 10.406262368160482 0.0 -0.08403426469629677 0.22115549966427692 0.0
86 1 17.275304782825526 1.3463764659188016 0.0 0.12013754009611724 -0.0342881262781448 0.0
87 1 8.478458180814101 3.853214871429875 0.0 0.029526865336142814 -0.20460416177264343 0.0
88 2 7.893290695358518 14.508837921647984 0.0 0.007953131770359254 -0.07906159645571939 0.0
89 1 6.048950282576279 2.0631558149423324 0.0 -0.01417505578340308 0.059496849162865566 0.0
90 2 10.01150350541729 17.587195220083608 0.0 0.061065340123907096 -0.008652836936902678 0.0
91 2 0.5362119233156818 0.0006745972008519486 0.0 0.04873155888642548 0.1013644383363301 0.0
92 1 10.00782803819508 9.806105046703225 0.0 -0.12077917089099047 -0.022840640844153708 0.0
93 1 8.13031613299914 4.4396823902134095 0.0 0.10713118218846973 -0.2388282857004521 0.0
94 1 3.888351390472463 16.410874971845768 0.0 -0.12783376640902666 0.0028025648381371573 0.0
95 2 7.948415910698848 9.101593641146742 0.0 0.02545600177552489 0.04591136394505138 0.0
96 2 8.883355281693557 6.019902529360741 0.0 0.02296264664346744 0.00013889438634157413 0.0
97 1 12.143474011070248 14.852246929349857 0.0 -0.014573438647894593 -0.04756470482299218 0.0
98 2 17.39534540053373 0.21754819051961974 0.0 0.045618803151933285 0.031109547101720696 0.0
99 1 6.4411307020283575 1.5334107197479478 0.0 0.007314831390492244 -0.16518371343881358 0.0
100 1 15.022939918973776 13.274961318207032 0.0 -0.0164891896348533 -0.029002225969500604 0.0
101 1 11.037823728221115 18.943284387156226 0.0 0.002558099154808244 -0.043108293786982076 0.0
102 1 14.098456384518386 5.196547594248923 0.0 0.020030822084135567 -0.09008820451393289 0.0
103 1 8.896360344652884 4.385167170918847 0.0 0.09606902911554376 -0.027670975083650344 0.0
104 2 16.338858504410688 17.194641624624833 0.0 -0.04524601113703078 -0.0178352994201776 0.0
105 1 14.494082037714133 10.828530696685286 0.0 -0.013822579511274597 0.0017443393623799756 0.0
106 1 18.54818493148998 10.147165642505907 0.0 0.01956421440947489 0.013840760364083647 0.0
107 1 11.129898503026219 17.686122860228824 0.0 0.07609555398154819 0.07899484662662958 0.0
108 2 14.524486066346157 3.6917483345785254 0.0 -0.04267546093018711 -0.04534297047802568 0.0
109 1 13.30132541952795 17.29726464841937 0.0 0.046946277312160306 0.0991280886715993 0.0
110 2 11.873556447948957 15.90016437581014 0.0 -0.01613772969347026 0.02760070686569574 0.0
111 1 18.97221560103766 8.558155280417738 0.0 -0.05020284521737331 -0.021672789815783522 0.0
112 1 15.809951257358486 10.626879142931012 0.0 0.0956125366827938 -0.009782991055722718 0.0
113 1 15.259296619963415 12.654954602925672 0.0 -0.013954299997118025 0.02359496870725187 0.0
114 1 8.924635252527523 14.834013672901223 0.0 -0.005938172185375115 0.046878182247663595 0.0
115 1 7.806955453169817 18.51734787082078 0.0 -0.06839555764221014 -0.006915123843221943 0.0
116 2 6.824857388744844 19.0343364498061 0.0 0.025105490584940604 -0.03132733649715553 0.0
117 2 12.114833704247468 17.129094539744838 0.0 -0.007441580788220908 -0.030281270791977132 0.0
118 1 6.855806186733131 4.7239391417056265 0.0 0.007324743556301413 0.039468680874277996 0.0
119 1 7.455796705899181 4.3811429826110215 0.0 -0.10018215301651061 -0.03181295929078888 0.0
120 2 7.573901502747642 0.3278857890321849 0.0 -0.009168387043945578 0.005785805377380681 0.0
121 2 8.677860522486643 19.41128578732891 0.0 -0.011616480802513877 0.09726059300481778 0.0
122 1 11.697021047568333 5.019187400513671 0.0 -0.014797232083907012 0.11571285511805192 0.0
123 2 5.716384223601416 9.814328138597618 0.0 -0.03742436758230711 0.06506136138559632 0.0
124 2 4.310736968441569 0.502532878938807 0.0 -0.08766333004803595 0.05234574028360568 0.0
125 2 19.53278911400093 12.274840006054845 0.0 -0.07367313731923707 0.06536087959491792 0.0
126 2 15.08170103981312 5.717364162739152 0.0 -0.022655992042565236 0.04783933984468466 0.0
127 2 13.043600527171924 1.812335261386204 0.0 -0.0631236482601381 -0.06920738018253973 0.0
128 2 3.587060610414424 12.585890504161446 0.0 -0.0887540947781428 -0.0071567689502219905 0.0
129 2 15.038090576935874 9.831306075388728 0.0 -0.0054413095528117305 -0.0677730028519794 0.0
130 1 17.72488887205467 9.014000020533887 0.0 -0.03197340782243715 0.07499408568525832 0.0
131 1 10.32999460488028 11.095110772402764 0.0 0.03897397353391245 -0.07261567302777483 0.0
132 1 12.184262752471184 9.358053719113553 0.0 -0.08080593486303407 -0.019361704919667346 0.0
133 2 3.1338286507172204 3.9773654061093415 0.0 0.06786506049329072 -0.06162886370950777 0.0
134 2 2.0843736435277678 8.25825467269125 0.0 0.02284643461431877 0.0057339928893847475 0.0
135 2 8.300414281980316 15.743403875658975 0.0 0.04204512326262682 0.054537369523483696 0.0
136 1 18.32355604937419 2.140588755699934 0.0 -0.013185766157231592 0.0003146303747184277 0.0
137 2 0.25193317072987137 4.738565735189352 0.0 0.03287818986293386 -0.05006002695619847 0.0
138 1 12.103737016405082 10.034362790066636 0.0 -0.11789404045789736 -0.026843011460586434 0.0
139 1 19.155168379481367 5.656100551657303 0.0 0.014622519254796063 0.008946882214547399 0.0
140 2 8.56669939515836 16.978593927044365 0.0 0.013825592597550881 0.11306121810032838 0.0
141 2 16.946692167718194 12.347071446795734 0.0 0.09075051667132082 -0.035026143598578016 0.0
142 2 3.2496657513367713 17.28691497337162 0.0 -0.059214466012148005 -0.035467069359402734 0.0
143 1 11.012723989225757 0.44236322875822853 0.0 -0.12044433451610319 0.06295467915899831 0.0
144 1 17.89991032252079 19.014779749485683 0.0 -0.08930208543694193 -0.14974231266893726 0.0
145 1 8.933641126525263 3.1603859341553777 0.0 -0.06088795615779663 0.03604917498479033 0.0
146 2 5.524775431988828 8.554986828721464 0.0 -0.11095548353736916 -0.007109439540998916 0.0
147 2 13.990091338947332 19.49643176568401 0.0 -0.040934348227555026 0.04330197768219832 0.0
148 2 17.684654879173134 3.0263322388061993 0.0 0.04241088775725039 -0.06124537948211392 0.0
149 2 16.23979332487654 15.833132989770077 0.0 0.043726408822929864 0.036863630000310336 0.0
150 2 10.49166702407687 15.351214109892824 0.0 -0.01385570132824813 0.032641791792032894 0.0
151 2 3.0941068099247895 18.54759388377929 0.0 -0.00662895394939538 -0.09134729422207108 0.0
152 1 15.510162207041779 6.73972928136486 0.0 -0.13237990024067145 0.0694477783628513 0.0
153 2 13.09890756563597 16.213499566094583 0.0 -0.047127466176383644 0.01321827769409149 0.0
154 2 8.848332508870076 18.17609665679072 0.0 0.065090864967568 0.011014656890745447 0.0
155 1 1.2719588182784713 5.169094133279152 0.0 0.11271727201249873 -0.04414718535160375 0.0
156 1 12.927167953979307 19.10635320925012 0.0 -0.002938572335705713 0.151723693773436 0.0
157 2 15.1721364207789 0.34681797917952456 0.0 -0.1292629077673139 -0.03584513783349032 0.0
158 2 13.966716604291193 18.205027507108262 0.0 0.009227417039131672 0.005322862701645435 0.0
159 1 2.6947592060221464 15.703823469233765 0.0 0.06166099511304084 -0.05134599373411822 0.0
160 1 0.883011951939767 16.90262774116563 0.0 0.1284459301948428 -0.16472662087640227 0.0
161 2 16.293721806011824 0.9040835571009768 0.0 0.06995676874349269 0.03215510032896342 0.0
162 1 5.633166795879684 4.156705524497302 0.0 -0.026866188841522705 0.01924342185663079 0.0
163 2 3.0779639633850646 0.037780911773559765 0.0 -0.008890691220421944 0.010716609290472343 0.0
164 1 1.3380725739045363 16.379378687241843 0.0 0.010257692265270756 0.13831799816410653 0.0
165 2 13.798732485959018 15.116723044182645 0.0 0.06514615205021196 0.016955147245756117 0.0
166 1 5.204203594037938 19.642129094360218 0.0 0.1280074604512849 -0.0755641522646612 0.0
167 2 5.772783092769269 15.15978718870996 0.0 -0.004963076325760777 -0.03160149712712347 0.0
168 1 5.413490961554596 2.2299922595627892 0.0 0.02693336561983594 0.024445210263921754 0.0
169 1 11.074614338082482 2.9054483780114553 0.0 0.017016837632566482 -0.15143087921965168 0.0
170 1 10.596571303559596 11.721933963343337 0.0 0.04368015522982088 0.07317462154573856 0.0
171 1 10.659790241991908 13.865435099045007 0.0 0.05035037158718954 0.006007676683306637 0.0
172 1 19.34910257659648 9.11746017000217 0.0 -0.0723540492704923 0.05986571997275313 0.0
173 2 2.2333211878638286 10.352789243464139 0.0 -0.023595821958954467 -0.0008677766603691778 0.0
174 1 9.334149507745812 2.613905435208148 0.0 0.010264535625737517 -0.049641999901414824 0.0
175 2 15.879968204925271 11.738148675263917 0.0 -0.011646554249824652 0.025800498948585108 0.0
176 2 11.103548411683516 9.615639484219471 0.0 -0.01970747788544598 0.003526224440224885 0.0
177 1 8.567796740791549 8.188045285456894 0.0 0.023093561415640954 -0.025606302091282198 0.0
178 1 11.360707248113714 13.759515786056449 0.0 -0.009717681305280362 -0.11472293524945852 0.0
179 2 18.802704154149332 4.5101460535674684 0.0 -0.03615597854669915 0.02014880903060902 0.0
180 2 17.3924948716012 13.55415423487658 0.0 0.030436899573835413 0.011500660159281193 0.0
181 1 11.571302222118778 8.117037783056512 0.0 0.03402408147056863 -0.11681676142319933 0.0
182 2 15.452491498596789 2.8716832025284638 0.0 0.014254893128829849 0.03483526996065019 0.0
183 1 14.172227209712188 11.507970706865581 0.0 0.026057775678928807 0.05833628023263045 0.0
184 1 10.45457563382382 3.222609143533301 0.0 0.054898471151261154 -0.026358606849462073 0.0
185 1 7.876760862057319 2.572435951898847 0.0 0.04547165798652613 0.03358211013903198 0.0
186 1 12.247675340231808 5.41538937393575 0.0 -0.05650364540330592 -0.003955113972345774 0.0
187 1 11.01271386788374 4.999665465503851 0.0 0.1370556745212212 0.020300009839474772 0.0
188 1 15.185697843931651 10.890430275554507 0.0 -0.03978747978697934 -0.06153302869844653 0.0
189 2 19.015702359017016 14.361234085331946 0.0 0.01768869476024913 0.05647937370639127 0.0
190 1 15.40113910834646 16.58094574340689 0.0 -0.05551501646392376 -0.03603543596293252 0.0
191 2 8.108699368582235 11.268853099493137 0.0 0.07604068314075156 0.0038560168870069066 0.0
192 2 1.7988061722696613 6.161609702744015 0.0 -0.008775694337598035 0.02003751059912127 0.0
193 1 7.180984935379123 2.61873599250917 0.0 0.06811758573858817 0.06291748909867666 0.0
194 1 5.0442440118091145 7.600116121221858 0.0 -0.19379149753861694 -0.007943314570520672 0.0
195 2 0.6168577272016579 14.86370122865965 0.0 0.028051647457572115 0.06437859479098407 0.0
196 1 0.1036143369033711 5.805552260362132 0.0 0.08748668934546953 0.0004565111005459562 0.0
197 1 4.463984348948859 7.263149506776244 0.0 0.008950090503690422 -0.11767184221615613 0.0
198 2 12.132308490138705 12.944224790425544 0.0 -0.033039818525772535 -0.006594509386093086 0.0
199 2 16.352652727320454 4.748415668329492 0.0 -0.047969317545992436 0.04617881388600298 0.0
200 1 18.42074762749085 8.976885750704822 0.0 -0.000671692960980422 0.024629174720487354 0.0
201 2 8.488918497281624 13.374844631751625 0.0 0.006682370741432122 -0.04555583421735297 0.0
202 2 3.4184983405687337 9.913392474990411 0.0 -0.003922672989082908 0.05543174279251864 0.0
203 2 8.909347540320516 10.043925921749397 0.0 0.05609346724571121 0.01424699690825581 0.0
204 1 17.419411839552435 9.688740734308096 0.0 0.15404072423506737 0.022269260347543774 0.0
205 2 0.3375707875224459 3.514999342679317 0.0 0.027906231196771165 -0.06592709832787085 0.0
206 1 5.844022824172092 2.7747290443558326 0.0 0.08733647851711111 -0.025744373624752195 0.0
207 1 10.445683419133386 7.435643323178132 0.0 -0.005610123443531132 -0.08853217235626587 0.0
208 2 9.724858570894344 13.243171496993131 0.0 0.014595133693601648 -0.05493426623346841 0.0
209 1 9.164676576446304 3.7799724549554634 0.0 -0.041438708887725266 -0.05960297661579265 0.0
210 1 12.229780340758206 8.234292850085533 0.0 0.0738945460088443 -0.12841310127780559 0.0
211 1 11.601507452825999 7.1782755944563466 0.0 0.022541105318073504 0.005908966065194993 0.0
212 1 1.847946062148095 9.326703387958261 0.0 0.0070252057662049065 0.08109195746698504 0.0
213 2 7.621858955948668 5.502040668702428 0.0 0.07447253293757276 -0.003308853144450124 0.0
214 1 3.2607209399067694 16.13279220720631 0.0 0.010432015391590117 -0.07624203593402906 0.0
215 1 10.815454042017754 19.55516863471804 0.0 0.00400551816901191 0.010723407606927084 0.0
216 1 1.389759111034029 15.719807348905096 0.0 0.08491423671712402 0.05684876354051284 0.0
217 1 9.426097894431084 8.348321995034928 0.0 -0.022420212406421006 0.06089028523141414 0.0
218 1 14.832236203509643 12.13635782142428 0.0 0.002252781789838181 -0.06993495585817651 0.0
219 1 9.656777283063724 9.217844736619465 0.0 0.022276281552034326 -0.06121433206789559 0.0
220 1 5.509513318256215 3.466519386506494 0.0 0.013333904655478792 -0.13467928232767104 0.0
221 2 8.75187497620513 0.9523637259104882 0.0 0.01091012437849364 -0.034300550471505216 0.0
222 2 17.961252025185566 5.494515860654513 0.0 0.010830280720768033 0.016821352842218782 0.0
223 1 0.8005545260041744 5.682211570498549 0.0 -0.012241888270818456 0.09385521763539732 0.0
224 1 9.20336942019557 11.12338760741911 0.0 -0.007249505385035945 0.04933358620397594 0.0
225 1 18.97988016627508 1.9592636209221372 0.0 0.05050292874534825 -0.09193530947774736 0.0
226 1 9.764876000317997 5.350480647522605 0.0 0.07119773707833782 -0.02133341382310229 0.0
227 1 16.733014479218156 9.704323198530957 0.0 0.09732253939541603 0.08488876313540068 0.0
228 1 0.709403654208515 18.197809977569378 0.0 -0.08439662688536476 -0.04072714902777923 0.0
229 2 9.853287986556793 1.6417788262905435 0.0 -0.0020826242964064393 0.1154514987154015 0.0
230 1 9.35436548075537 15.34741341518532 0.0 0.08690684912983265 -0.2023382594807919 0.0
231 1 5.21954977132783 5.407410406258095 0.0 -0.09725243351067002 -0.019915678301829096 0.0
232 2 6.285959930023166 5.718760110391648 0.0 0.0485781798043819 -0.046327429319106175 0.0
233 2 18.43476041276276 6.659653321661534 0.0 -0.01598539258873449 -0.041184115602202774 0.0
234 1 0.7714607983381867 15.987128716567426 0.0 0.026235376579786276 -0.033745631839890315 0.0
235 1 13.52429026433425 11.766228940069688 0.0 -0.06874241719494477 -0.019700642935264218 0.0
236 1 5.1628252563906 2.8491703441198015 0.0 -0.054091806226384896 -0.048417399794424616 0.0
237 2 5.281191542500934 6.520778853472902 0.0 -0.04354281630132361 -0.032769830438678725 0.0
238 2 3.148694935912308 11.3252390753743 0.0 -0.012970750001225075 -0.002900734554100412 0.0
239 1 5.272862274869018 12.224180651130863 0.0 0.019418083185181623 -0.03278944925953435 0.0
240 1 10.352656133945354 10.41715185190697 0.0 0.023975658359731023 -0.0881070758687379 0.0
241 1 11.813825269824719 8.777517672645256 0.0 0.05337139135426743 -0.11036085960081238 0.0
242 2 10.87688118241421 16.628599837130658 0.0 -0.012814107636872421 0.056914651362385424 0.0
243 1 12.170726431016549 11.828362149349685 0.0 0.023868608963138586 0.002612740847224787 0.0
244 2 14.373765253998343 8.618847088463992 0.0 -0.0840802839496873 -0.00782695247579976 0.0
245 2 13.339547604182219 3.3929761005241454 0.0 0.0038637332319455225 -0.09351011496786082 0.0
246 2 12.43819238137727 6.502105881437406 0.0 -0.013174918684763148 0.04484561530622834 0.0
247 1 18.122596567381738 9.593832666111362 0.0 0.016756831929879968 -0.08267358444729897 0.0
248 2 6.624922459926981 3.6312596154536854 0.0 0.04089074025564515 0.04204952414731143 0.0
249 2 2.2362784238898796 1.947966340565663 0.0 0.09040454460960824 0.07849962025481488 0.0
250 2 4.558834576149786 4.489773060989562 0.0 0.014685682759370414 0.015746745443813156 0.0
251 1 11.486711415796092 14.898597688195311 0.0 -0.04315999860539732 -0.056249227812556715 0.0
252 2 19.540086442818737 18.722519168303663 0.0 0.025226989884619595 0.0423655440700385 0.0
253 1 9.349793470754232 7.136230717104183 0.0 -0.13561478999345847 -0.013192889836745152 0.0
254 1 7.789368796309272 1.4118542085121635 0.0 0.0705288543579065 0.026592638977445612 0.0
255 1 10.99128046947204 6.97271775868702 0.0 -0.024309493085204654 -0.01563847127628904 0.0
256 2 13.80681658363115 9.871333435864893 0.0 0.11472629503279408 0.03617232646506923 0.0
257 1 11.52984695223257 11.965044433915237 0.0 0.04944680804559521 0.0009467357543510913 0.0
258 2 17.550296370101478 4.295971325904584 0.0 0.060353287530827956 0.01215514808785192 0.0
259 2 5.359365263068316 17.33898149836643 0.0 -0.03592538051227917 0.02854057783669091 0.0
260 2 1.3542467691830058 2.8093453031638065 0.0 0.006587906982868268 -0.10432624542617935 0.0
261 2 18.784312585937823 19.681843854185487 0.0 -0.03455448778084647 -0.06341334736579991 0.0
262 1 10.935869977782312 1.7392145676207842 0.0 0.11167271549691477 0.08356874032872952 0.0
263 2 18.37824287161831 17.53740724469227 0.0 0.02002141303832647 -0.006153716156127416 0.0
264 2 4.338423864259868 18.123574922647762 0.0 0.026966133198250464 -0.04925567634261594 0.0
265 1 17.370637193649653 15.773024545635566 0.0 -0.1324922299991562 0.02515516117210893 0.0
266 2 17.802979717266265 14.750461681429558 0.0 0.054603503663951496 -0.018517918217308495 0.0
267 2 16.268087267203413 19.347070081177147 0.0 0.02077375359769738 0.027703214610013953 0.0
268 1 17.28819503785491 17.777150103173213 0.0 0.04625499604325225 0.05854970268535857 0.0
269 2 10.111566263710865 6.384945206009099 0.0 0.025540005152464167 -0.0814241228880079 0.0
270 2 15.27894561043946 1.6408858541017048 0.0 0.0758508611948306 -0.031478426790626374 0.0
271 2 1.9968036109997753 14.84319218486076 0.0 0.05595556392502242 0.14014078899695695 0.0
272 1 14.165105002436416 12.169767208410324 0.0 0.07166151958384388 -0.09370209597798725 0.0
273 2 1.4091455628022058 13.699566553481716 0.0 -0.054299912200617924 0.15048402106546455 0.0
274 2 1.8580452344815062 11.543006923282407 0.0 -0.004320806834252472 -0.05262397639308835 0.0
275 1 17.681180646051473 18.367372802072722 0.0 0.02911698092151325 0.03834113300191902 0.0
276 1 3.1011004570325134 13.600201914081312 0.0 -0.043992811188340065 -0.15573950494608185 0.0
277 1 18.00366125885446 10.87421376829998 0.0 0.03647085319389183 0.16410296685309425 0.0
278 2 12.752589150446004 10.91352430942045 0.0 -0.016259868587532676 -0.12690297511902834 0.0
279 1 11.777737404995156 14.28005329308166 0.0 -0.01475870098887465 -0.04046679206242105 0.0
280 2 17.231725929446746 6.849528111396473 0.0 -0.04972240332164459 0.07244756224786528 0.0
281 2 5.497350160981829 0.995505009279237 0.0 0.06957567700739328 0.04922476787072216 0.0
282 1 10.982759446923778 5.684341245461475 0.0 -0.23540767542901536 -0.07437321824218474 0.0
283 2 13.791821882908197 6.275237912337776 0.0 0.04442665141495601 0.0002776841434339595 0.0
284 2 1.1690863116304124 1.207303333976062 0.0 -0.02951655490178353 -0.014648171103047143 0.0
285 2 15.13792954683324 17.64157897125491 0.0 0.02268322815170534 -0.026641121181218575 0.0
286 2 15.926462047831942 8.93477181213885 0.0 0.007495904931544036 0.007334935498817152 0.0
287 1 4.438663479752176 7.978916103209751 0.0 0.06789160430180402 -0.012952144074606244 0.0
288 1 11.359696131177015 2.2783411671676848 0.0 -0.12235222817666362 -0.015935578416985695 0.0
289 1 4.824064677263835 3.4384035875247916 0.0 -0.051815346279760956 0.0074336528940976265 0.0
290 1 9.110289904613948 7.75990234942306 0.0 -0.034607279316879104 0.07126721066008743 0.0
291 1 6.154668187159896 13.123235230987854 0.0 -0.0446047222866459 0.05691587795888919 0.0
292 2 6.6359006098349305 17.75681261964394 0.0 -0.02719805861830392 0.005897583456699995 0.0
293 1 12.024770296023618 2.2263606036797183 0.0 -0.03778747771496085 0.12435824578769485 0.0
294 1 2.393460691686129 3.1605170987101925 0.0 0.009071862171703792 -0.003188955767853153 0.0
295 1 9.640096890639207 3.2549984148077007 0.0 -0.030952580338229264 0.055992920173971034 0.0
296 1 14.315296833383075 7.357047961039875 0.0 0.015153391683290862 -0.07822227460347997 0.0
297 1 10.035577713258863 2.698558606607718 0.0 -0.08668488636852074 0.0483068500993512 0.0
298 1 17.22747099452094 18.849144861613706 0.0 0.023898573509449864 -0.0247284394892198 0.0
299 2 16.549379872574754 2.192926773886125 0.0 0.060078502616146966 0.030576392431470936 0.0
300 2 11.991355144241691 18.388282802688966 0.0 0.06922773305983615 0.0786964949113783 0.0
301 2 18.60492752738831 13.156022913743245 0.0 -0.011863977433042657 0.023544240543989552 0.0
302 2 15.324695988247978 7.812225886781908 0.0 0.011787654597166648 0.07393072641216211 0.0
303 2 0.279207621505375 2.205132496582999 0.0 -0.01852252898792674 -0.007758279434125981 0.0
304 2 4.178080927375286 13.672385403371486 0.0 0.07356590544267534 -0.04039241571247347 0.0
305 2 4.507312484872094 14.878153930446656 0.0 0.1085211236849511 0.031059596176792548 0.0
306 2 19.730919567251306 10.141799161702137 0.0 0.11623430913040397 -0.051751501446104055 0.0
307 2 15.106300595596586 18.862774771881167 0.0 0.03619502320053246 0.06439433899951805 0.0
308 1 0.999240944454035 18.781816061447103 0.0 -0.035750387629693584 -0.026097941074961068 0.0
309 2 13.403390839246901 12.909857086218466 0.0 -0.01295905795491 -0.0630328773166602 0.0
310 1 3.8660489938872282 7.555173226981914 0.0 -0.1626321194896603 -0.004820587119399704 0.0
311 2 6.16907369644515 16.37812570423852 0.0 0.022980477679508494 0.1404500677523179 0.0
312 1 13.450071989743341 5.118076680581748 0.0 -0.07684854045880464 0.0783214314131481 0.0
313 1 12.099226535966846 7.58491295420219 0.0 0.055315639408848864 0.0754740849227385 0.0
314 2 6.695086487978209 8.969154351704008 0.0 -0.08093898359134079 -0.03188233422805386 0.0
315 2 11.915315683499816 19.61062774321613 0.0 -0.0015926539023389142 0.037732950650925495 0.0
316 1 4.305374189154825 17.000738089999967 0.0 0.03742983497199816 -0.10622367142705892 0.0
317 2 16.332285207783414 5.9946999236050065 0.0 -0.017368552723391925 -0.11001227492574708 0.0
318 2 3.378514852168138 2.622114785617198 0.0 0.04159214124484054 0.042408179054464104 0.0
319 1 0.10621844418111312 15.84033303077527 0.0 0.03623159746781759 0.07367576561141846 0.0
320 2 11.393665250523295 10.888102946975069 0.0 0.03536990771608044 -2.4962333027840364e-5 0.0
321 1 9.756962585394275 10.733451062649694 0.0 -0.01503749365211003 0.09915768401442404 0.0
322 1 12.720559638617202 15.172280124337794 0.0 -0.0100393061202886 -0.013831677310504447 0.0
323 1 16.13479784447696 7.078454789906178 0.0 0.010509892950572938 0.08491448085697971 0.0