ITEM: TIMESTEP
0
ITEM: NUMBER OF ATOMS
400
ITEM: BOX BOUNDS xy xz yz pp pp pp
0.0 19.7609 0.0
0.0 19.7609 0.0
0.0 10.0 0.0
ITEM: ATOMS id type x y z vx vy vz
1 1 2.576060343011567 8.170982997182687 0.0 0.050813637562221486 0.06024497837118388 0.0
2 2 0.09569905164684206 3.7504879671146765 0.0 -0.04023957581098924 0.04586963756422491 0.0
3 1 1.320811733979643 11.681444037654469 0.0 -0.1773269473210757 -0.11754365539162906 0.0
4 1 9.344763644173083 8.39997596889818 0.0 0.06037753618120268 -0.1209512952474352 0.0
5 1 13.517872266606917 4.613532426001731 0.0 -0.06396733879911898 0.07008063477942682 0.0
6 2 5.412011392246084 3.636624278723535 0.0 0.04459042756317919 0.028771286655069346 0.0
7 2 17.678052858462785 7.266930215445677 0.0 -0.08052765627715755 0.04358707892089353 0.0
8 1 10.175867059772376 12.681362062239737 0.0 -0.11732686275620349 -0.012490784060441277 0.0
9 2 10.04999462141235 1.8875321116066617 0.0 -0.0023721833801742 0.049294750511096046 0.0
10 1 3.8038832760658514 2.1235677791037415 0.0 -0.050820195175495596 0.003891669875490673 0.0
11 2 10.40973675911288 8.691821793426334 0.0 -0.05437372412235946 0.023987807699246196 0.0
12 1 5.827226496665586 12.849711529963436 0.0 0.089210164970986 -0.029757225008042492 0.0
13 2 16.28113979804352 17.4450828925027 0.0 0.011231887721978313 0.004655445989784465 0.0
14 2 0.7835242595433263 14.552531745032178 0.0 0.08315003259375954 -0.007587453574626644 0.0
15 2 7.8189788586196665 13.290347950717068 0.0 -0.05784366309809612 -0.028536157288849378 0.0
16 1 4.561038429086681 17.149636093187446 0.0 0.08374075401539745 0.03705410045722997 0.0
17 1 4.455688344690207 2.2918419719388474 0.0 -0.03693596196733953 -0.05749358841523428 0.0
18 2 8.506706189336569 5.713996839600417 0.0 0.016128165492328844 0.03620388776797843 0.0
19 1 6.99519703978409 3.2678338207050497 0.0 -0.10073412886125328 -0.015493238940902479 0.0
20 1 6.119124600921342 10.896060187008178 0.0 0.0484866249702952 0.02488778823366153 0.0
21 1 1.5717176175781042 13.733761132355147 0.0 -0.1572314034944631 -0.09442095305011931 0.0
22 2 18.433437251939583 10.672481047437628 0.0 0.008714017767850456 0.029408260632928587 0.0
23 1 6.3558193991389915 2.9648097419325867 0.0 0.039452273221824055 -0.10310580156057847 0.0
24 1 12.362797956588297 7.418397492198619 0.0 0.008556445217749125 -0.023533632408885233 0.0
25 1 16.74744126121692 4.346557248826456 0.0 -0.050888334157099896 -0.005737328549709088 0.0
26 1 16.02483402303113 6.608456704088134 0.0 -0.1128019432946317 -0.031907882661032096 0.0
27 1 8.924750939334368 7.8877923477704055 0.0 0.04104697684152402 0.017498160285640073 0.0
28 1 11.93366551953534 6.435027097586096 0.0 0.31650836326228055 0.03129579669776078 0.0
29 2 12.561687423390925 14.41475304071781 0.0 0.04252258604220245 0.0279748768983528 0.0
30 1 12.510236985576126 6.084669511143867 0.0 0.20873356920252456 -0.026238334929450245 0.0
31 1 8.838319774143036 3.1019400211186285 0.0 0.07398275074029806 0.04736316659089466 0.0
32 2 19.479470842981215 19.47701962204908 0.0 0.026060969173661547 0.0287341094077969 0.0
33 1 0.9211651120581185 2.9901858615257675 0.0 0.005055858818947884 0.04071471538512624 0.0
34 1 6.395525163436829 5.056605994721271 0.0 -0.014441738535111052 -0.0808167019022949 0.0
35 1 5.7175756714455535 2.6101893255505413 0.0 0.0026048216911857994 -0.000271072465787732 0.0
36 2 4.890547014711773 19.238024913713932 0.0 0.035795767258838825 0.037583848215169226 0.0
37 1 13.278309356428835 17.41379193283349 0.0 -0.06247039039163078 -0.06295134404004854 0.0
38 2 14.96492653099464 19.024066702887158 0.0 -0.016082474601614077 -0.004255982449115721 0.0
39 2 7.45936020443272 6.451096146036537 0.0 -0.015954477508585453 -0.05584827461265465 0.0
40 1 6.895048021897455 15.620990982794515 0.0 -0.00590203460072598 0.03262904277605631 0.0
41 2 6.609831182890557 1.2537942973503065 0.0 0.02151735695815447 -0.014920846499943725 0.0
42 1 16.190824939711426 15.717822632029733 0.0 -0.15395562922365066 -0.07326390089019442 0.0
43 1 18.817458653343703 8.56782497591086 0.0 0.004090460824626174 0.07613011627981849 0.0
44 2 5.30803167665209 6.901956939368188 0.0 0.01879885372938079 -0.05513676538170827 0.0
45 1 11.22175059270101 2.4026439118398457 0.0 -0.1999944326783913 0.03772188132536939 0.0
46 1 1.880641508524828 5.335923404761062 0.0 -0.0017284149379308074 -0.021581242874870264 0.0
47 2 5.236057500964097 18.013883413660484 0.0 0.002411707628889348 -0.015937678487397484 0.0
48 2 2.2239482483291826 19.344213914705808 0.0 0.0013056861920421312 0.03777503519232918 0.0
49 1 4.849415349548278 13.748518090201621 0.0 0.10359770280979999 0.13632529931770498 0.0
50 2 5.600550315896264 16.804453638150857 0.0 -0.07278451227443128 -0.04780701134879225 0.0
51 1 5.884676890789772 4.6176703575915825 0.0 0.0555818789501902 0.05706104962299332 0.0
52 2 16.16151088096048 0.20450790929105445 0.0 -0.010512828870153033 -0.05275424967929615 0.0
53 2 11.179482982028908 13.188435288699356 0.0 0.018784115043886444 -0.06374367179346797 0.0
54 1 10.61433724601064 12.20330767693239 0.0 0.012546971936577783 0.15139703695351125 0.0
55 1 1.0490940324414937 9.467582668590635 0.0 0.02826065269598536 -0.04740851473501276 0.0
56 1 13.935464146103486 11.460841908486351 0.0 -0.05298588883118112 -0.07599209693759346 0.0
57 1 1.416828272166276 8.898207658193416 0.0 -0.08443975283284502 0.07734441837199552 0.0
58 2 8.308069302817561 8.822724538013079 0.0 0.017034745466325264 0.0010529072069540213 0.0
59 2 13.821407088082134 12.579137121033117 0.0 -0.014447192199655371 0.09673714950307491 0.0
60 1 6.338739181448442 6.379563736321737 0.0 -0.040746338983700565 -0.025290153677321257 0.0
61 2 15.103802138540525 14.149058243703209 0.0 -0.03056325366592682 0.04596889127978751 0.0
62 1 7.7917190382338095 3.9664198399377604 0.0 0.043697077782252416 0.13618315096518885 0.0
63 1 5.3067086983059415 11.681864196213876 0.0 0.07604244689766695 0.055022693892925 0.0
64 2 14.9387568441046 17.746119979169688 0.0 0.06893106662398997 -0.0165814585256216 0.0
65 1 5.339351335781237 8.58969885607106 0.0 0.08688638234884766 -0.029146458198534876 0.0
66 2 7.396388190939561 18.623053147521208 0.0 -0.07992286157121532 0.047443857097646515 0.0
67 1 12.30284374506205 4.271929729373182 0.0 -0.030113724861316127 -0.059831924165559894 0.0
68 2 8.634942779170762 18.20741541355442 0.0 0.01853648464223685 0.02373790319036271 0.0
69 2 0.9764970949648122 19.57656545498473 0.0 -0.00043038528100494434 0.0862218266274689 0.0
70 1 13.725084943408058 6.883595725833847 0.0 -0.0031187273782785478 -0.0006912045605723477 0.0
71 1 12.076886952002527 4.945719903184636 0.0 0.026581492646744306 -0.0638850744314927 0.0
72 1 16.57688610192187 4.986010491790773 0.0 -0.1448750332733446 0.07293070188539304 0.0
73 1 13.35907644294659 16.761444869139904 0.0 0.05763157342390306 0.1127645493848865 0.0
74 1 12.841998420931084 8.540893476075356 0.0 -0.04204601055985192 0.03827494179789894 0.0
75 2 13.177732285063975 3.61288104825841 0.0 0.009270504931878688 -0.0736850469577467 0.0
76 1 16.984982732130682 8.78033382618224 0.0 0.05001778257049764 0.10047147444294866 0.0
77 1 9.43951145636682 2.800236240611789 0.0 -0.10717567612499639 0.017404693886405035 0.0
78 2 15.038603166965984 12.92162063221391 0.0 0.05170621687191573 0.004158110587179876 0.0
79 1 13.600880499885275 7.593644089154948 0.0 0.003706017228260615 -0.04332666693125671 0.0
80 2 16.201761765743413 18.681354435566494 0.0 0.11611284304614017 0.047599381303714494 0.0
81 1 16.72830634575332 9.421771072599231 0.0 0.1280660722512675 0.18075974087490562 0.0
82 2 10.999153964142478 16.62828648321447 0.0 0.1001701801007931 0.058504095145984314 0.0
83 1 10.233184431698572 0.13655593683511316 0.0 -0.06502202366628924 0.00014163672195553593 0.0
84 2 17.19838285166149 10.480124419597958 0.0 0.05634790618897349 -0.09127172075975355 0.0
85 1 16.22399878356419 9.955582403683412 0.0 -0.0053930903703342135 -0.05397791086527716 0.0
86 1 4.410650040523087 16.452542926046412 0.0 0.025774728390425897 0.09799777464292843 0.0
87 1 2.8738485762807824 11.250106046714512 0.0 0.0294152586976496 -0.15296912983644206 0.0
88 2 0.6441572561454638 17.48377786424711 0.0 0.045655685728808786 -0.05661978639947511 0.0
89 1 5.511436645678871 7.947505192672437 0.0 -0.032925470817133325 0.024622429051590383 0.0
90 2 4.673363276336772 9.424847977910051 0.0 0.030468070582259633 0.06039712443743489 0.0
91 2 4.075394953345705 7.261897874405063 0.0 -0.04282375127320792 0.018872340394313767 0.0
92 1 3.259427063833594 19.075808671387023 0.0 -0.0036322605835253435 0.04734750484516406 0.0
93 1 7.6579965442513735 3.3077913542646473 0.0 -0.03313008827066537 0.07223931120502104 0.0
94 1 0.5578570789103006 4.7340127504689224 0.0 0.020183960478884842 -0.09248956348551733 0.0
95 2 17.264168112970413 19.46016714336327 0.0 0.08861840470374144 -0.08087884441822372 0.0
96 2 15.170723943125214 2.9675257372096446 0.0 0.019785598449887924 0.04295476583228987 0.0
97 1 1.8839136533109984 14.321790259613309 0.0 -0.020863117058426313 0.0912274850731928 0.0
98 2 19.324196101869386 14.060081912945565 0.0 0.013438885448759605 -0.011577313790831328 0.0
99 1 14.216999749879209 2.3232759874567503 0.0 0.06304540098845962 -0.009802477859867691 0.0
100 1 3.157062554851631 1.9409192729546438 0.0 -0.1421572189278566 0.004111332145356076 0.0
101 1 4.393844839849448 14.263264651500352 0.0 -0.058607798075680256 -0.019992124349637888 0.0
102 1 2.940829817691261 12.437244856975193 0.0 0.02250096842791189 0.011709408607198709 0.0
103 1 16.273891643890686 3.8489900212027077 0.0 0.08363516959686583 -0.016165575615578028 0.0
104 2 12.274464361993667 16.89136742796001 0.0 -0.0319997272126683 -0.03859932590372012 0.0
105 1 18.48892624240367 6.517664533178447 0.0 0.04828633890377225 -0.021340822790473144 0.0
106 1 3.816386016020628 4.131753824714144 0.0 0.061431576780686746 -0.09820270483787531 0.0
107 1 3.7068608573979605 13.110581509800607 0.0 0.07526830911426002 -0.0920351896558497 0.0
108 2 14.956680265242419 0.5146846184052571 0.0 -0.010282275997387564 -0.03830827030188269 0.0
109 1 16.931493191509496 5.583481085257237 0.0 -0.1346843444123538 0.09256838011471893 0.0
110 2 14.41512735797282 3.9764625399000293 0.0 0.04034814868655298 -0.04427377969653147 0.0
111 1 0.45112153389565013 9.739586704663889 0.0 0.04993901940388882 0.20196505239212706 0.0
112 1 13.033226728047522 7.204319145956742 0.0 0.031144482641418714 0.03984881973600056 0.0
113 1 17.24050827909561 6.239372648553814 0.0 0.10044658639932812 0.0469001948628006 0.0
114 1 16.5742528063378 6.179509209414549 0.0 -0.05331448328815052 0.10391264064795919 0.0
115 1 5.746572520939264 12.192714924541 0.0 0.0028935338202261563 -0.11415966179663749 0.0
116 2 2.8680399894116393 14.805924092332107 0.0 -0.033341943376879485 0.013253079793675827 0.0
117 2 9.091001302250518 12.819210056262236 0.0 -0.02229710620899279 0.03738295744271823 0.0
118 1 9.374321721271015 9.072323190176453 0.0 0.11569778552270073 -0.004551865926816768 0.0
119 1 4.997223424005041 14.590183854452048 0.0 -0.041352065714214674 -0.04255361366824221 0.0
120 2 16.20090379415787 12.325141678378351 0.0 -0.010660228134559822 -0.002735354846607313 0.0
121 2 8.784395554289489 4.479012231087256 0.0 -0.13620084885498288 -0.08283097669519383 0.0
122 1 1.1739591840192558 3.62374711370946 0.0 0.1684484008191303 0.06792246424382556 0.0
123 2 7.434296431809811 9.94269562113804 0.0 -0.09182237829429664 0.028055604127140633 0.0
124 2 8.787999216066211 14.13592940831759 0.0 0.0077533561480307225 -0.034107809285190374 0.0
125 2 17.423888339903144 18.09260768086428 0.0 -0.0433719094346819 0.02636332775443902 0.0
126 2 12.54573485433045 18.205506336845527 0.0 -0.058891035157328624 -0.04297149986925044 0.0
127 2 11.925521736201919 10.744844349912427 0.0 0.09147956830268528 -0.04364771744151375 0.0
128 2 19.234993700728047 18.016262651179158 0.0 -0.06047907688663884 0.06140437291066636 0.0
129 2 8.112614717074162 11.986063209325568 0.0 0.015054276975557208 0.08384763909817432 0.0
130 1 5.778979001244677 9.763838372032728 0.0 -0.07034705999870738 0.05069713514390067 0.0
131 1 14.891648658306934 9.927901217207383 0.0 -0.007595804852088425 -0.047520423292423224 0.0
132 1 1.720871621869638 17.24671929361926 0.0 -0.002558300859981034 -0.030795376678809924 0.0
133 2 14.22385223902203 16.136924420777607 0.0 0.06905755230312087 -0.059455372822807294 0.0
134 2 12.4941626408361 13.051668525685962 0.0 0.10712571581644384 0.03863772279877256 0.0
135 2 0.6372092669321114 7.395163626531847 0.0 -0.12309181244687936 -0.0938848012230957 0.0
136 1 5.984796707070085 8.415878075319998 0.0 -0.005893401667160104 0.005486974906354044 0.0
137 2 13.899472025323433 14.714431286413422 0.0 0.0387691486092603 0.06719738380504688 0.0
138 1 9.963513508751387 12.039463344001067 0.0 -0.031525732777363466 0.057065381307556694 0.0
139 1 13.929779209335027 17.22648843861893 0.0 -0.01994954335593219 0.07993876682008294 0.0
140 2 15.920198694893157 8.571289981520627 0.0 0.07451966325317926 0.07928764902826509 0.0
141 2 18.408866395474973 16.08943985373914 0.0 -0.03424124706586641 0.0872774273692172 0.0
142 2 9.873620956726175 14.939529684743091 0.0 -0.02509701851781644 -0.04699244901773164 0.0
143 1 15.05795132829137 9.287809990830109 0.0 0.009667857613935694 0.03658772803049784 0.0
144 1 17.073240645409076 11.6075814582295 0.0 0.12558934768454716 -0.06792474670671012 0.0
145 1 13.114234213161579 1.9738867951784336 0.0 0.05811467428121652 -0.10062135935395014 0.0
146 2 10.588010550101302 18.842836471889953 0.0 0.02874499964166029 -0.06611608194679097 0.0
147 2 8.718882224361993 15.413080090963705 0.0 -0.013311671639666685 0.029473423027412345 0.0
148 2 19.592170949024013 6.329124856757762 0.0 0.0014487136110947745 -0.1091346168553312 0.0
149 2 7.840822313765567 7.653470352272798 0.0 0.0024347298206222586 -0.002700751655304772 0.0
150 2 18.60432469253963 2.042313335747363 0.0 0.031400105872925875 0.06047343237236048 0.0
151 2 9.40127584222148 19.19527134776097 0.0 -0.05943832187535935 -0.10390101459593276 0.0
152 1 1.9961870256340701 11.504099156024777 0.0 -0.027669835124226667 0.11819603107128565 0.0
153 2 13.819399785272925 19.686021389735984 0.0 0.013536363611072343 -0.023101922168591943 0.0
154 2 3.7644361436411757 8.461911058835858 0.0 0.07749064147398452 0.03674164263451123 0.0
155 1 4.173062565765158 13.61716607981661 0.0 -0.037785041357086005 0.07697122640419113 0.0
156 1 3.008062666494629 7.681579796486452 0.0 0.10622492164548768 0.052564910077828916 0.0
157 2 10.044490132633973 9.972903495075105 0.0 -0.015848934782482126 -0.01834107572236115 0.0
158 2 13.806164192132876 18.373819162168953 0.0 0.05670641015260996 0.06051725162941377 0.0
159 1 4.28964986402376 3.6556241637230467 0.0 -0.11098704445241935 0.03100506379892293 0.0
160 1 19.65144905307989 4.82359748587787 0.0 -0.06488208221823401 -0.06950902945372238 0.0
161 2 11.340260327616443 17.81132915631234 0.0 -0.058382690726310985 0.034997534273367936 0.0
162 1 17.954172024125505 12.218317712966234 0.0 -0.011862724883415192 0.06856141349460254 0.0
163 2 9.229294749669853 0.7122111040327342 0.0 -0.016704584292024295 0.0690473929697522 0.0
164 1 4.619226859941362 11.576189743226319 0.0 -0.024611742578045378 -0.09162666983856006 0.0
165 2 15.375308340100357 7.478662256432794 0.0 -0.041791719486088154 0.10010768812559097 0.0
166 1 17.977264425652173 0.9640344495168587 0.0 -0.04147642429376001 -0.05879407985796247 0.0
167 2 1.491183184372338 18.340470604201656 0.0 -0.005859048814989993 0.02435720838176872 0.0
168 1 17.746447852313924 11.561737461756275 0.0 -0.0935994805272444 -0.18435233494021966 0.0
169 1 2.6347197758768974 6.473413137059076 0.0 -0.06996824391193524 -0.09764126009668314 0.0
170 1 8.30274737364857 3.5240203293989025 0.0 -0.04629097920285916 -0.0029945966943506707 0.0
171 1 11.669358632363899 18.864426094892668 0.0 0.03966730379493094 -0.0009384772827315468 0.0
172 1 10.324159574739243 0.8042684521938442 0.0 -0.0011199368048009542 -0.03871305165063544 0.0
173 2 6.464638014385055 17.690467874192883 0.0 -0.03001511896305388 0.01240152016396212 0.0
174 1 17.52539223162434 8.350349355713224 0.0 0.0911336037099722 0.005512758026098175 0.0
175 2 16.315452961865514 1.4241736250941293 0.0 -0.057150604219471 -0.03006799964420401 0.0
176 2 0.8321998528081287 16.23632566046627 0.0 0.009711650989873899 -0.015556220595447753 0.0
177 1 2.2590460049683436 10.883440056269157 0.0 -0.004425037505964536 0.13469820664223026 0.0
178 1 13.421500462083584 8.244731591380074 0.0 -0.17027258457429773 -0.12476615270010277 0.0
179 2 6.561423949181504 13.697942084068343 0.0 -0.0012747667502267391 -0.08433109573656446 0.0
180 2 11.984598308090296 3.1803584524328237 0.0 -0.03502951196320312 -0.019131700574048335 0.0
181 1 13.720828902293784 6.174522322786339 0.0 0.08015093111609603 0.1294157084990842 0.0
182 2 10.881797283537383 6.278961148271707 0.0 -0.028132327064913726 0.01937154454857383 0.0
183 1 17.441655708359477 4.189964826308297 0.0 0.015939735607406445 -0.1507271662754066 0.0
184 1 16.66990347646923 6.847019825353117 0.0 -0.07095941434015378 0.14197416817831737 0.0
185 1 4.121655157032123 0.9705573033758743 0.0 -0.02000624452994528 0.08880251882334789 0.0
186 1 11.123166353266168 1.7716460365286393 0.0 0.02402765221191445 0.11166280151490245 0.0
187 1 9.389526695752577 3.486793482649732 0.0 -0.12714177370021945 0.0017260595508570354 0.0
188 1 16.451744259876392 16.346501502983248 0.0 0.05312288764925483 -0.03508261192318931 0.0
189 2 0.07704726667270907 2.3038025873565413 0.0 0.004519193798379375 -0.03687564110312048 0.0
190 1 6.345499900334551 16.00942329552276 0.0 -0.1562512203467118 0.09470865327962553 0.0
191 2 6.133723339590466 18.89935676632831 0.0 -0.05398511929764159 0.008977831082306839 0.0
192 2 7.778163324060568 16.20115948782482 0.0 0.07510711778380984 -0.057036686936807565 0.0
193 1 2.558649317477366 2.2448734824468795 0.0 -0.03287932380556682 0.03721412705686531 0.0
194 1 18.211844463515295 0.2621493316044099 0.0 0.03381487132378212 0.09975593949758839 0.0
195 2 2.8846624177721627 16.04507317946063 0.0 -0.08783164912166125 -0.04683906357946994 0.0
196 1 4.842163564628788 8.100277924138032 0.0 -0.0707670285124974 -0.04356327374411517 0.0
197 1 3.620692415113613 12.438194702249975 0.0 -0.0770821057271982 -0.1162823025970042 0.0
198 2 2.119449662498363 9.748743971547219 0.0 0.13571006292037596 0.0005526433135796271 0.0
199 2 18.379563452389682 18.916556488188593 0.0 -0.1272946423081315 0.01990767393718268 0.0
200 1 1.715174030458682 4.0013421672083185 0.0 0.025707767838472617 -0.15376600462041953 0.0
201 2 15.165835780816613 15.350444943075072 0.0 -0.061980283783453924 -0.003427847622840289 0.0
202 2 11.232272490015239 4.201872029480136 0.0 0.05960660750561016 0.04687223919744154 0.0
203 2 7.147604439680405 11.181866921512286 0.0 -0.06601824475846091 -0.028405034944821318 0.0
204 1 13.448925922798537 8.926930502825472 0.0 -0.020491542049296783 -0.011496124714878892 0.0
205 2 9.960294699703587 17.626632638520057 0.0 0.024507723964877885 0.024415013196587454 0.0
206 1 6.307940379735958 10.230703022385452 0.0 0.024322311134585436 -0.07054420881870349 0.0
207 1 12.60038417109529 5.393499619579613 0.0 -0.001555586357179943 -0.06190285332434587 0.0
208 2 9.834380165409936 16.20139627444465 0.0 -0.006683152960188655 -0.02235921813945255 0.0
209 1 14.230691790735209 7.346914838954298 0.0 0.012857582428418293 -0.022058303848438245 0.0
210 1 6.397578194123176 9.548400416745023 0.0 0.012648087562392565 0.10976381307905178 0.0
211 1 1.1449258336838524 5.072448263539502 0.0 0.034540446461726396 0.00863190956413715 0.0
212 1 11.431485312371938 5.294000894451217 0.0 0.18781908321812238 -0.0037346738348314223 0.0
213 2 4.219328083854834 5.852440264815006 0.0 -0.051452079795366805 -0.06887658250852152 0.0
214 1 3.632601409772862 1.4718454592775385 0.0 -0.0991286120004682 0.013567664642886758 0.0
215 1 2.5761290962935206 1.5760676900537474 0.0 -0.05295031588981457 0.06272800590745124 0.0
216 1 2.219962509027186 2.806965478282205 0.0 -0.031083038302776773 0.025084769955310303 0.0
217 1 17.27008205071731 0.8118490386210817 0.0 -0.05119419682397287 -0.10361757892070199 0.0
218 1 19.16752156040786 5.294622241292176 0.0 0.058438332623183105 0.011256805349568156 0.0
219 1 6.535184930824796 4.366545071710258 0.0 -0.052249493493468205 -0.09252710245106187 0.0
220 1 8.535279219877838 6.817303916941727 0.0 0.10703850292891091 0.014721843388142282 0.0
221 2 5.210020700598302 15.66459659100642 0.0 0.08795666547293822 0.02425231117542144 0.0
222 2 2.7085082250754673 18.095773683353922 0.0 0.05436280534621832 0.0011456337185418908 0.0
223 1 0.782631743065376 12.830399009783791 0.0 0.05827773443199618 -0.02434155885179796 0.0
224 1 6.031051890409821 11.57015896645246 0.0 -0.06260175391850957 -0.028364946852329875 0.0
225 1 3.2607801862143337 5.306095940140372 0.0 0.016137958462019975 -0.013350518354256507 0.0
226 1 16.503826944995033 7.517630634196898 0.0 -0.08153449439254438 0.010204136693479068 0.0
227 1 6.728691917233815 16.603323687973557 0.0 -0.06879252693029098 -0.04155009198567587 0.0
228 1 4.130965394828152 0.2817786409075692 0.0 -0.0748129952347942 0.09093395798800426 0.0
229 2 6.132344462531065 14.874513297111557 0.0 0.006670994005811811 -0.0743729969654789 0.0
230 1 3.7235825824687105 4.830537364344477 0.0 -0.17511042818605138 0.032541126942087696 0.0
231 1 14.250019441724216 10.179233924207225 0.0 0.060436671478651914 0.0726359958303487 0.0
232 2 19.423561437702702 16.74783561312017 0.0 0.030865692531717545 -0.01745781977765134 0.0
233 2 0.29174963977643037 8.620268486358398 0.0 -0.014249325354513594 0.038274664143918294 0.0
234 1 2.9866680734904727 7.0325996024119295 0.0 0.06628590521806776 0.03134531254989537 0.0
235 1 18.199933703501102 8.274527831769388 0.0 0.012604618597952326 0.018331960928998987 0.0
236 1 9.090229546679058 7.234443208726049 0.0 -0.03991266269150162 0.06135695226448696 0.0
237 2 7.472995532169437 5.014845331112636 0.0 0.025653643463818012 -0.02795844068070886 0.0
238 2 3.3022091780338156 3.1153768601371548 0.0 0.013742735434337034 -0.008631294044602614 0.0
239 1 13.444210961380909 13.669282051103147 0.0 -0.0014075728608272887 0.014516374561790429 0.0
240 1 15.63800670096013 9.605176473243288 0.0 -0.014012780355799238 -0.022830085328944226 0.0
241 1 4.273932167937699 1.6375854424414578 0.0 0.05811629248669404 -0.12287046051853148 0.0
242 2 3.3698254283507554 9.63418979285434 0.0 0.08406929943033689 0.07043846807866563 0.0
243 1 8.203640913236143 2.8839809411489887 0.0 -0.010776051918142104 0.05640100513332457 0.0
244 2 7.642317896325496 17.40433588927876 0.0 0.11228250411446108 0.008180764723907984 0.0
245 2 1.9251724961749352 7.296810151395618 0.0 -0.006418636482590231 -0.05913878753102638 0.0
246 2 19.13884294658822 9.596880625306076 0.0 0.0039040150085353875 0.0011646716237417652 0.0
247 1 2.2182683457747223 5.967907804215162 0.0 -0.029429995242065733 -0.008465076054548933 0.0
248 2 10.703839733359345 7.500313091361662 0.0 0.044416609640012324 0.005626380350236579 0.0
249 2 6.536228607386631 7.454206660420871 0.0 0.12474108160705054 -0.023519653123365042 0.0
250 2 18.076055778409536 5.49525467814034 0.0 -0.041830970012174895 0.06996159755324194 0.0
251 1 18.40105959075996 17.282328709755486 0.0 0.0016217561990929145 -0.026425496955974546 0.0
252 2 4.0116863555642315 18.278256030582693 0.0 0.03733103481956142 0.03687377540522566 0.0
253 1 4.702513644049583 0.6361244910966006 0.0 0.16659107846378785 -0.010840069932913787 0.0
254 1 11.55326360521367 1.2702766823280907 0.0 -0.008993301658575727 -0.04264500814631447 0.0
255 1 5.4395737555248544 14.067965327241193 0.0 -0.12642564646248686 0.05554712901285046 0.0
256 2 17.262445690834806 15.570421792302971 0.0 -0.00856376791266349 0.017753262544093956 0.0
257 1 10.760552437661415 15.56020198489221 0.0 0.023109406070087914 -0.049104407813437986 0.0
258 2 7.344896633515968 2.2377323422938273 0.0 0.0586116944909347 0.02972967923321919 0.0
259 2 13.919838149911566 1.2592073905899008 0.0 -0.004061345721682038 -0.0028700330728081698 0.0
260 2 1.8131807972550111 0.7785105443463196 0.0 -0.10386617439574267 0.015955683191700633 0.0
261 2 12.870280878810544 11.768464010129586 0.0 0.08614729411914561 0.014572892577502909 0.0
262 1 17.288588984833567 12.274403131991543 0.0 -0.08427149954332373 0.06718746737983983 0.0
263 2 5.494156005371599 5.67390499899854 0.0 0.039187329465645265 0.018143209292935388 0.0
264 2 5.360782212642097 1.562204632215167 0.0 -0.02316333613336104 0.0703771673439565 0.0
265 1 16.933045189179918 3.7090438556633996 0.0 0.035416385232995055 -0.09845503819378193 0.0
266 2 12.561970071106488 19.494089061044303 0.0 0.12316455863352749 0.010319812040093666 0.0
267 2 5.1038214531663195 10.60116860106009 0.0 -0.028863976416398422 -0.03483502174657291 0.0
268 1 14.368323068605664 9.505532459168736 0.0 0.012410563924100417 0.06234685046314366 0.0
269 2 5.750929510022212 0.34990878213961657 0.0 0.03628701115681934 0.0004850705722746463 0.0
270 2 6.9933432754524825 0.057648709858877066 0.0 0.003600416928654783 0.05092767344125351 0.0
271 2 13.071699007515935 15.67609361724574 0.0 -0.05688386749390821 0.013125030907643546 0.0
272 1 2.563045081931553 5.391500328285106 0.0 -0.1283934382749007 -0.019674071945816402 0.0
273 2 8.814177005204872 16.93476478729276 0.0 0.06425286244659471 -0.012593654662778158 0.0
274 2 18.955256144444267 12.72023237126903 0.0 0.030505028908242974 0.026390801724117046 0.0
275 1 11.78087415569398 1.9515873132576698 0.0 -0.030192389795889767 -0.1145899834662511 0.0
276 1 18.42183526859601 11.755170945307409 0.0 -0.04734288507369197 -0.14375159753146494 0.0
277 1 14.285133948784306 10.862062815986768 0.0 -0.02571302477510592 -0.014526646343304743 0.0
278 2 7.520674757560606 14.707399202566837 0.0 -0.01552165676167175 -0.0008824170715549588 0.0
279 1 18.98613475709693 3.089739762167733 0.0 -0.006746912500016062 0.015297939909893539 0.0
280 2 15.398918404594422 16.57770908269422 0.0 -0.022862567701874344 -0.003975411603735129 0.0
281 2 4.7794090267444505 4.669775996505584 0.0 0.01909812984579924 0.017983028063601865 0.0
282 1 16.088476396837788 14.714730662404438 0.0 -0.042599101205237085 0.1124716146530822 0.0
283 2 4.028826541393497 15.303713380226108 0.0 -0.06965495505859669 -0.1083912092767236 0.0
284 2 9.240740772306923 11.228519751481706 0.0 0.011151866131415847 -0.060610202201536206 0.0
285 2 8.235035139132277 19.58041296084892 0.0 -0.01151285007423809 0.019129970186939748 0.0
286 2 18.605035138433777 4.303897630692735 0.0 -0.012204321697384222 -0.09572374243482126 0.0
287 1 13.560161301091679 2.479625638093142 0.0 0.0926276108537119 -0.0022570971195722857 0.0
288 1 5.042310332874712 2.612571212168372 0.0 -0.01745861026089051 0.046171378655046 0.0
289 1 15.488032397321318 10.226886924248715 0.0 0.028762435979912435 0.0655618638383702 0.0
290 1 13.141326908332896 6.526234142114817 0.0 -0.09834587554859572 -0.04763020003949685 0.0
291 1 3.2817960184188837 11.811038715861056 0.0 -0.05173769810274644 -0.05056744153397826 0.0
292 2 17.819414102780428 13.311183523884965 0.0 -0.005475987239534788 -0.056105987506476815 0.0
293 1 3.7152388167765396 14.11879095439988 0.0 0.13968400068804726 -0.035483903967391324 0.0
294 1 19.08640215075892 11.606257093003997 0.0 -0.010210830274138912 0.12101922604417738 0.0
295 1 11.960086206861803 5.705030665140164 0.0 -0.053732833663189164 -0.03443429322914823 0.0
296 1 6.594333465147283 5.732183933216886 0.0 0.07793279580916192 0.07422344203302911 0.0
297 1 14.900528812784279 10.588828884070939 0.0 0.0448143182336687 -0.1036424829682445 0.0
298 1 0.8344138582174738 12.164243276440518 0.0 -0.06795884908151915 -0.05797079997965719 0.0
299 2 17.87629535322632 3.1630466120547416 0.0 -0.01764840753748782 -0.008425459132388685 0.0
300 2 12.605538625765993 1.0122956917306491 0.0 0.0014596210452280985 -0.05762976017786937 0.0
301 2 19.531736442758255 15.37829844218746 0.0 -0.019817921783083333 0.02892306231511825 0.0
302 2 11.665029006017349 12.003148877476475 0.0 0.057645589808399705 0.010603280276606574 0.0
303 2 10.648709051873007 11.113414014286382 0.0 -0.06971064141341649 -0.10234274559605158 0.0
304 2 17.40364814514516 1.9266339305310278 0.0 0.10449863669220089 0.05136416591629702 0.0
305 2 10.04801329071438 13.748112330748109 0.0 -0.03371116405716112 -0.01623305446147214 0.0
306 2 1.1998746650890086 10.589752248197827 0.0 -0.0003937110619456284 0.12373494630900432 0.0
307 2 11.346049773568073 0.17559899643853755 0.0 0.006881213503867675 -0.008079196949183598 0.0
308 1 4.097737406078718 11.152265389189763 0.0 0.038239177173763864 -0.011182825362098189 0.0
309 2 10.017773369617608 4.387299976178485 0.0 -0.07466852479934347 0.04831914186762415 0.0
310 1 0.9404726443183503 13.476788425116675 0.0 -0.07180568846253367 0.021136622309290365 0.0
311 2 7.022116785867732 8.672960769922982 0.0 0.0010389894092612813 0.07873333842597366 0.0
312 1 1.6891711556764542 4.6821579931047035 0.0 -0.07030259281446696 -0.07533304665472705 0.0
313 1 16.898298554198064 8.07821020954313 0.0 0.07146561673012541 0.06466287419166482 0.0
314 2 19.101866823521686 0.9124163422137973 0.0 -0.10330176882112095 -0.021636234819548184 0.0
315 2 15.675904038055789 5.575436935058969 0.0 0.046299312720073045 -0.011059817457992204 0.0
316 1 16.045468197267155 4.501743521587594 0.0 -0.04397071298220328 0.025770451562250014 0.0
317 2 16.42697822692343 2.7346774304565247 0.0 -0.012932565571139363 0.011250600929302463 0.0
318 2 15.123140242271514 1.7252981095622464 0.0 -0.062461587373543924 0.0510583607775704 0.0
319 1 14.045079908592875 2.946071972740246 0.0 0.10762578149602633 0.0819258466723918 0.0
320 2 3.0784728556286605 0.5458452234304789 0.0 -0.1026233811915503 0.025986992262316932 0.0
321 1 19.735970245699143 11.83212020610211 0.0 0.07909313595617644 -0.0035931036027897598 0.0
322 1 0.24355397679925817 13.219277451782563 0.0 -0.014455544876714443 -0.0769324109291043 0.0
323 1 5.8614594459896985 9.088223508955277 0.0 -0.10994099879896449 -0.011293065225560778 0.0