ITEM: TIMESTEP
0
ITEM: NUMBER OF ATOMS
400
ITEM: BOX BOUNDS xy xz yz pp pp pp
0.0 19.7609 0.0
0.0 19.7609 0.0
0.0 10.0 0.0
ITEM: ATOMS id type x y z vx vy vz
1 1 6.5406950582222585 7.506747811801149 0.0 0.07097848352715291 0.008151321147442894 0.0
2 2 12.177545520448643 16.841953796663653 0.0 0.05961956046494105 -0.05414372087096387 0.0
3 1 9.875976194727867 6.413009850304323 0.0 -0.008937372716025372 -0.0017702327723992108 0.0
4 1 9.92614597321852 17.622660133654826 0.0 -0.038826221464801074 -0.1265646351977739 0.0
5 1 13.237308459076061 19.60050607078618 0.0 -0.017666287729043512 0.02103577225374907 0.0
6 2 13.19764465863382 13.818305946600566 0.0 0.04754698613362469 0.0012291051521102572 0.0
7 2 11.910650863197334 7.579124223026944 0.0 0.10337390945795517 0.06732203448512376 0.0
8 1 3.0132935296169747 0.21690993611808077 0.0 0.0726628288824577 0.18103400017593083 0.0
9 2 14.451365599417862 1.7636738709493536 0.0 -0.027961985922997985 0.06285299468263017 0.0
10 1 3.9176510137635776 9.849058018111249 0.0 -0.06775852135286645 0.08229045476901374 0.0
11 2 3.820415718328064 17.909056323265048 0.0 -0.014183451960964105 -0.01590118106673533 0.0
12 1 6.466233193004333 6.861672066865981 0.0 -0.10102536879070509 0.007525619526269856 0.0
13 2 19.674068383436676 10.360473752860951 0.0 0.025120619541756255 0.02765904663168761 0.0
14 2 9.729379162525987 8.209222305179996 0.0 -0.020608466146153113 -0.06805126707843774 0.0
15 2 18.27709547104881 18.829260910499922 0.0 -0.01631403981270742 -0.022879273860941497 0.0
16 1 9.644605088406038 12.426182378825155 0.0 0.10918583778582153 -0.05062098927077735 0.0
17 1 17.234118931377452 1.0780756469761352 0.0 -0.008290640419725565 0.04051138588383511 0.0
18 2 7.002288889252423 2.017284669628071 0.0 0.05371482819712523 -0.021313253242283572 0.0
19 1 14.142811580562887 13.259924457392971 0.0 -0.09043000613661176 0.011169009279409996 0.0
20 1 5.674905129806755 13.406960336797331 0.0 -0.044295495692750333 -0.07658898808329434 0.0
21 1 15.903620428886727 14.803527398907633 0.0 0.06809228042826601 -0.005888622078467598 0.0
22 2 13.771544506810336 2.842061054068758 0.0 0.05138961055801226 0.09000589237053373 0.0
23 1 16.409385050024966 2.5451199042435944 0.0 0.1902249365328299 0.12078139464978922 0.0
24 1 1.1878091589351496 0.5386773128365384 0.0 -0.038012009375249664 0.08851431026726038 0.0
25 1 16.963054376206166 1.6958394154453458 0.0 -0.07345264196513433 0.15490445708408823 0.0
26 1 16.127317662768334 15.920278933639546 0.0 0.003275686219496429 -0.16846902175265985 0.0
27 1 7.3349168994953775 17.710029167360073 0.0 0.04126593849903137 0.10798412892653818 0.0
28 1 5.187125819060411 13.838634746033447 0.0 0.16277068894814717 0.1606381618321433 0.0
29 2 16.61770106837543 13.934585493827404 0.0 -0.01591469879823342 -0.10763197180448845 0.0
30 1 1.3335066484004514 1.2041604229748892 0.0 0.00860037730885067 0.054059321726621916 0.0
31 1 10.894566829654305 3.765197862186446 0.0 0.09968477763617328 -0.08699376814002434 0.0
32 2 2.650237021596834 8.741851454585309 0.0 0.07359542094113153 -0.06442690392686926 0.0
33 1 3.893694281142165 16.848740201387013 0.0 0.043736809817510894 -0.006414761906663276 0.0
34 1 18.530412651182974 0.15243919543252132 0.0 -0.0327233174891436 -0.005000308206267853 0.0
35 1 11.30973698232014 14.7239773251977 0.0 0.03389592126895041 -0.03859461116513866 0.0
36 2 19.28932185459587 7.03309825689274 0.0 0.013816438022641084 0.05589806691328056 0.0
37 1 19.1080981380672 19.574981109414423 0.0 -0.060935898613009895 0.13775458002113336 0.0
38 2 11.76117785807319 1.6314365394836212 0.0 0.02865519644569775 0.020475717681216112 0.0
39 2 11.234511894034004 13.047631320079942 0.0 0.06737407788499335 0.04304041394895062 0.0
40 1 1.9561256583900535 2.8319477712468535 0.0 -0.09522884784700941 -0.03420035178625611 0.0
41 2 13.00535950716884 5.402451724059414 0.0 0.04330187732314015 0.03295337007740274 0.0
42 1 6.97257054843092 18.957395051500107 0.0 0.009209307995558276 0.0022070429640461357 0.0
43 1 3.968134237590947 7.6193165194062304 0.0 -0.04955726409623914 0.010153902943319477 0.0
44 2 15.412166852594394 6.178159577296444 0.0 0.004883005027746862 -0.10838819314000835 0.0
45 1 18.481773383421583 0.8155357246993351 0.0 -0.11599803882377716 -0.017301152099083582 0.0
46 1 6.434547119251593 2.9514491148164645 0.0 -0.08008639945127412 -0.0654327870279723 0.0
47 2 9.020270024476604 0.026170853133393523 0.0 -0.05873362884103737 0.0367187781160216 0.0
48 2 17.53659983023915 5.790978217769604 0.0 0.03215263879178663 -0.014178270735036459 0.0
49 1 6.572614097977633 19.492150371498063 0.0 0.008028812636324547 0.04741119635287137 0.0
50 2 11.456532503406379 9.779412657912731 0.0 -0.015996958018057297 0.08701712021818496 0.0
51 1 11.051121497266518 16.90506838771022 0.0 -0.10785207869103797 -0.03727869177268233 0.0
52 2 8.286346833576841 2.0226288936544936 0.0 -0.0035387589414360727 0.030843438170307852 0.0
53 2 6.267127597618171 17.40570267779328 0.0 -0.04921882441179551 -0.06347497167512058 0.0
54 1 13.69892054846536 7.777031563041214 0.0 -0.08994843214979774 -0.034802094265371925 0.0
55 1 16.51431439550676 12.7397235100951 0.0 0.11282717774686359 0.07375854456019777 0.0
56 1 8.803065394789645 8.755755025172538 0.0 -0.0049819402724570715 -0.16889810606868694 0.0
57 1 4.408177653952781 4.765411872743537 0.0 0.06043790301385004 -0.037674838281644564 0.0
58 2 3.0850750267610305 16.16706416133809 0.0 -0.06367733954399038 -0.03019125224846515 0.0
59 2 10.696743420350113 7.466783656620859 0.0 -0.10567406116690115 -0.061194771359500244 0.0
60 1 19.543575861460077 13.508277021649493 0.0 0.17131016594183898 0.12903832967164414 0.0
61 2 6.050642837562426 8.488238139177573 0.0 -0.049945794173022674 -0.016447664990436935 0.0
62 1 9.22075706993698 5.097802907905977 0.0 0.12345491348303253 0.06506440732926486 0.0
63 1 9.579022575602945 0.9711462095693061 0.0 0.01834051347127124 -0.13948422754417075 0.0
64 2 11.589031059767661 17.91192680826151 0.0 -0.008817534447242538 -0.042020576093169504 0.0
65 1 9.393317805557707 5.91798059590486 0.0 0.029640589309769965 0.09227698935156509 0.0
66 2 6.204454512557819 9.74941571443623 0.0 -0.015102371713028985 -0.1090920333757956 0.0
67 1 16.66206796925845 0.7477970811608146 0.0 0.06471674280451598 0.026193738881704773 0.0
68 2 6.862694476036032 14.296692188186949 0.0 -0.02334041052678849 -0.05283489247252193 0.0
69 2 8.074817224716222 14.125753075052488 0.0 -0.04052940140333027 -0.08876333930958696 0.0
70 1 0.5956454494683276 0.24076124159848789 0.0 -0.02019476530105056 -0.008999144841963349 0.0
71 1 10.107438284894576 1.3995376296910123 0.0 0.06343057790825045 0.059251448563919104 0.0
72 1 12.750883876681216 18.44091398944176 0.0 -0.10354019827774072 0.1762076660742378 0.0
73 1 19.75822192889972 19.708653976610204 0.0 0.006524612557935079 -0.0757028682378289 0.0
74 1 16.92680172783123 3.0164926529769067 0.0 -0.033680187759711176 0.060854314881309775 0.0
75 2 11.643461312944344 5.255238378993643 0.0 0.033903059075202906 -0.02057597438671576 0.0
76 1 10.646228310371761 1.8330288027723662 0.0 0.15083028367256424 0.0898542097606772 0.0
77 1 18.67625366062652 16.35112225091987 0.0 -0.008890002023502501 0.06051611771445732 0.0
78 2 13.47403588003843 8.853031771988322 0.0 0.00044522565463412056 -0.022622482802907726 0.0
79 1 9.28256288153967 17.406349817811517 0.0 0.029950203697297326 0.00336340117279796 0.0
80 2 5.445377248063076 7.301410672281073 0.0 -0.018133579276230535 -0.005146164021333425 0.0
81 1 17.205753843800863 18.7413402772031 0.0 -0.13446307418191444 0.10660851234627347 0.0
82 2 1.0431634327635453 9.963971499410293 0.0 0.048019560575113314 -0.04513225910067903 0.0
83 1 6.692024132944015 6.23387560581489 0.0 0.1153075379329355 -0.04745579318687826 0.0
84 2 8.657058092391424 12.951360232985225 0.0 -0.03978051431184321 -0.008763683231527682 0.0
85 1 5.079693634506524 4.936108246772068 0.0 -0.06059198893320949 -0.027667641887814922 0.0
86 1 14.501455539611342 16.506208459677246 0.0 0.024841648118063348 0.05033799369756676 0.0
87 1 7.644867883302903 1.1467864396075254 0.0 -0.03763281331346137 -0.0010272532275971964 0.0
88 2 14.519525132419492 12.216124050572507 0.0 -0.09106223467754729 0.017737412453743488 0.0
89 1 6.287410932966805 12.706248485130942 0.0 -0.09930307513714429 -0.03239916836805846 0.0
90 2 18.678502668052797 12.780133782183652 0.0 -0.054730772187967666 -0.028098835673071556 0.0
91 2 4.116723349858911 0.22677089394920205 0.0 0.03071300931973529 -0.13762657941880166 0.0
92 1 4.8229393852109546 19.08004283689904 0.0 0.02625145161949799 0.01617173965515589 0.0
93 1 5.554392072823841 10.602077443177466 0.0 0.03206465578067312 -0.07627537534166973 0.0
94 1 16.92041805329137 12.184825977559193 0.0 0.16527725998165874 0.029824798742936767 0.0
95 2 4.497276530469153 15.956038412168553 0.0 -0.06916640203124606 0.015860679713209515 0.0
96 2 2.660539390917723 3.6775160434645437 0.0 0.0188121829182323 -0.029100756877179113 0.0
97 1 8.941285084324251 11.321221105062342 0.0 0.1033306919195033 0.0690961833119962 0.0
98 2 14.289010130492004 19.264628699698484 0.0 0.033684145141175265 0.027751557807060234 0.0
99 1 17.957098196598402 11.242573016819895 0.0 0.032098525394612804 0.0988149077777189 0.0
100 1 2.1524408035596116 4.671938421323862 0.0 -0.11858528636767768 0.04883865796617084 0.0
101 1 5.506481671278643 4.40645966471517 0.0 0.00688216335780393 0.012024623913226382 0.0
102 1 16.490490951466143 6.301137872625282 0.0 -0.1416240781500366 -0.014619785924406653 0.0
103 1 18.02987998661838 11.90291431054643 0.0 0.012103998996144056 -0.06315148349783678 0.0
104 2 8.850830667912726 3.3482520191363254 0.0 0.009719276108641334 -0.006124211134026003 0.0
105 1 14.059965432473255 15.995760115823796 0.0 -0.07570475962241964 0.01685340565603995 0.0
106 1 6.814480421282323 10.671198016041473 0.0 0.15935625047338745 0.021797089923386668 0.0
107 1 18.248510821963645 6.703796012764384 0.0 0.07597897092972783 0.05137596307984958 0.0
108 2 3.4380703496150176 1.2870381836642275 0.0 0.018472716221776927 -0.020581209425294376 0.0
109 1 15.702347194047967 16.483418652737356 0.0 -0.08754613803982073 0.039948873434836614 0.0
110 2 11.259042937513753 11.826058184592602 0.0 -0.015338375208214516 0.08343304902166543 0.0
111 1 12.169408361262308 12.45226647694164 0.0 0.033134871013038344 0.10213291009703665 0.0
112 1 19.69248229878261 2.3112542441121433 0.0 -0.07903582308044696 -0.018899368592598016 0.0
113 1 6.829727107011655 11.347185110102927 0.0 0.029997532674227202 0.2118890374264438 0.0
114 1 12.463336045410548 11.848625904161352 0.0 -0.08145350915005485 -0.004976983320181731 0.0
115 1 6.17589629987496 10.875914916247558 0.0 0.07460755931507083 0.05709343869379255 0.0
116 2 5.701971578963079 16.28196343924614 0.0 -0.126070772752401 -0.003729356405423547 0.0
117 2 14.710268378325736 7.252411790903319 0.0 -0.01617969878869864 0.043896013277888044 0.0
118 1 7.2352682031277205 10.12361717975284 0.0 0.015435644992459894 0.11062354744261425 0.0
119 1 11.544068913175881 14.091481584111616 0.0 -0.03148592036131792 -0.028268315342380786 0.0
120 2 17.72656036367639 9.190624825049532 0.0 0.02264658394279544 0.0494605250373926 0.0
121 2 3.021264017851203 18.862417792209296 0.0 -0.03336423327636402 0.09450478038733631 0.0
122 1 17.58900532818312 2.859946570219911 0.0 0.057862914030149495 -0.06536262171997495 0.0
123 2 14.19053223730538 4.86832752719265 0.0 0.037165807388264756 -0.002409773755052287 0.0
124 2 16.4501173835558 9.441733907399826 0.0 0.051893751299176075 0.006848811705693234 0.0
125 2 0.2852026878028507 8.0852861367852 0.0 -0.08830499933337617 -0.1341971990695433 0.0
126 2 8.011553859908354 18.57911581033646 0.0 -0.07512466049553965 -0.003967881161555961 0.0
127 2 8.673812493244657 7.556274795431865 0.0 0.0239982473043966 -0.04673973918633673 0.0
128 2 9.370131067407893 10.322443615514368 0.0 -0.031216966917461175 -0.09247372270503816 0.0
129 2 6.632861725922955 15.504689846405734 0.0 -0.03996394999520436 0.02029816369287001 0.0
130 1 2.0468925466049424 9.641512540425252 0.0 0.10946811168375618 -0.08644576731950938 0.0
131 1 3.318235109664325 7.848860404223138 0.0 -0.002714914965988273 0.10101925329649508 0.0
132 1 7.904288719615463 12.107297462319575 0.0 0.08921026113806733 -0.07566106269074742 0.0
133 2 8.267442844799906 9.723245430237547 0.0 0.08467015147459368 -0.045843522852352936 0.0
134 2 19.65719674592081 5.784747053782293 0.0 -0.007680068510009488 0.03292190007134196 0.0
135 2 10.905447033233907 8.692509439632634 0.0 0.012509797836876954 0.0044374473410894325 0.0
136 1 14.526648679506822 17.17540552350788 0.0 0.028642275638372915 -0.012028195290649841 0.0
137 2 3.9792902865845674 3.6244884887835687 0.0 -0.05155145824659681 -0.02520809077661406 0.0
138 1 2.5169222643828744 0.6781707600516633 0.0 0.00893624388550806 0.12546000187640982 0.0
139 1 18.952147082184318 1.2725788338194512 0.0 0.02534875189049956 0.07081375963417637 0.0
140 2 15.983519979447976 7.359103458945118 0.0 -0.03373389343322799 -0.02459326797047958 0.0
141 2 5.877018847572253 18.629695707392056 0.0 0.058039888385384465 0.01583264997135855 0.0
142 2 2.7021445201041794 17.423965456515255 0.0 0.07019157317412975 -0.058528817472921844 0.0
143 1 8.633697351563848 17.633271290260335 0.0 0.043401938270843515 -0.011785676615161762 0.0
144 1 9.188795718904037 6.569240700399866 0.0 0.0736122351134243 -0.054685231153823274 0.0
145 1 1.9717151691567183 7.870219162042278 0.0 0.09181244146984475 -0.049493550442393605 0.0
146 2 10.28481193378393 5.310936050759873 0.0 -0.061444778798781484 -0.0374836395775531 0.0
147 2 10.509871855541236 18.583480152024098 0.0 0.07143652233771314 -0.03883330201904323 0.0
148 2 0.7659143294450961 6.684282627961774 0.0 -0.12996209010695534 -0.08398779510183618 0.0
149 2 7.634374866963102 5.684714607877342 0.0 -0.07071623433363633 0.05693864199192245 0.0
150 2 15.776156480196772 11.932941012642608 0.0 0.10272650089073926 -0.010627340570617422 0.0
151 2 0.6155672723310861 16.31357185553131 0.0 -0.11507682415549211 -0.06555995043038652 0.0
152 1 18.284885811055844 2.902922153133463 0.0 0.09792772043573973 -0.1648105498571471 0.0
153 2 4.947779398287916 17.299582584757513 0.0 0.04973863068503063 0.11631353412292107 0.0
154 2 10.363358424387055 15.280027872301627 0.0 -0.0030195439326734025 -0.008953952362799457 0.0
155 1 1.9020538643477738 18.298804386247877 0.0 0.02578426486495278 0.13003795460001877 0.0
156 1 17.869174075613206 3.4554362365789517 0.0 -0.01615622664890577 0.0065852574623683595 0.0
157 2 15.227777609072781 9.61232361610669 0.0 -0.02105737372446957 -0.017162350101337247 0.0
158 2 12.458448302664726 0.6193287873798408 0.0 -0.00035190246363226655 -0.010283534841239117 0.0
159 1 19.02246071354581 4.887376744028253 0.0 0.1345506407618388 -0.12657803049302743 0.0
160 1 0.9719569488478121 17.330931155331868 0.0 -0.11498651087859743 -0.02920629504191449 0.0
161 2 7.345245054527449 13.022899762107206 0.0 -0.019715620146177476 0.022372993176827016 0.0
162 1 8.563994698602706 5.1022437106801695 0.0 0.08107202891661419 0.10563932774224867 0.0
163 2 17.865663971872866 13.72404966919438 0.0 0.04720388992735949 0.013098259487016812 0.0
164 1 6.1972984410933885 11.552193924831869 0.0 -0.07481731246206968 -0.020577764571830883 0.0
165 2 6.530061533674152 4.047666832099492 0.0 -0.004819880946670953 0.022193539573221968 0.0
166 1 13.233963075370855 6.556665090218952 0.0 -0.06038836242401162 0.15102455256057273 0.0
167 2 3.265306590300905 10.736372186854823 0.0 0.038996157730982486 -0.007647004833446649 0.0
168 1 12.990373142337196 7.874216563167796 0.0 0.16697906173599733 -0.11696220643770194 0.0
169 1 11.996378373380322 19.436220275767404 0.0 0.03763960175795155 0.01764674302635313 0.0
170 1 8.841270372656455 4.494308155156448 0.0 -0.04225103635083607 0.011532838891422592 0.0
171 1 0.6372829432107688 2.2936182360462616 0.0 0.06541355544715526 -0.006585631387432502 0.0
172 1 13.512047048068936 14.860079713914336 0.0 -0.03945442409441413 0.06651421955556094 0.0
173 2 17.576852166652085 17.717566309566568 0.0 0.03977655157200248 0.08683945809711932 0.0
174 1 5.803024542691755 14.089879704851853 0.0 -0.16290927840872305 -0.01629314521475627 0.0
175 2 13.030380368799648 1.7985913829851214 0.0 0.06803360348146914 0.07342643860451305 0.0
176 2 7.857926521383067 15.392843930511267 0.0 0.03037152668559243 -0.030186161658296153 0.0
177 1 3.68743451207445 8.404942088574215 0.0 -0.004957821439401999 0.04985002513338275 0.0
178 1 5.616028002896431 12.751491889612598 0.0 0.024087558122489253 0.002731716181684772 0.0
179 2 0.32208178178880037 3.32216090129318 0.0 -0.016740278205659914 -0.08323749428525044 0.0
180 2 0.34729106490852035 4.5690878526885035 0.0 -0.06145052062760034 0.06536900359717551 0.0
181 1 12.963076134072855 7.1875637171104705 0.0 -0.029903225985966973 0.007101245330505657 0.0
182 2 15.076885054123286 18.1218294471952 0.0 0.051841186740737635 -0.052254220184792824 0.0
183 1 4.983705732954198 13.179382980529047 0.0 0.153779841774364 0.013270854576687936 0.0
184 1 4.2867445747442225 5.43454717053736 0.0 -0.05730096647180562 0.0011961802377530464 0.0
185 1 15.553768499107688 14.248560609633794 0.0 -0.1577904452873033 0.05446805895495628 0.0
186 1 17.15053999292704 12.906635249774594 0.0 0.04708826960509265 0.016585068971306988 0.0
187 1 18.656677511982156 17.79231105166709 0.0 0.1405234973033439 -0.06806162806524323 0.0
188 1 15.789838011990545 8.526207838816445 0.0 -0.1706158246632496 -0.007163908795523517 0.0
189 2 12.966763741305263 15.826349197934537 0.0 -0.03465619563941339 0.018147313774940013 0.0
190 1 13.979221459195193 15.326613375642587 0.0 0.04317682144059297 -0.09734688166112748 0.0
191 2 15.892784937569507 1.5488829419551047 0.0 -0.09668632097271175 -0.07091468862448123 0.0
192 2 4.439261186794897 6.582673530921897 0.0 -0.04645925223503119 -0.05558807788174329 0.0
193 1 7.240889133208849 19.614430774468225 0.0 0.08049218651778611 -0.05407484279896161 0.0
194 1 7.697525206256698 8.055525576185218 0.0 -0.028135156587556887 -0.04897533873740682 0.0
195 2 1.8537954413435038 16.36557880839576 0.0 -0.05144380790362699 -0.10441513460272771 0.0
196 1 1.274112565249819 2.636374433644403 0.0 -0.018771495500598333 -0.1068643783692111 0.0
197 1 15.101134615992502 16.81422498511239 0.0 0.06986311541037342 -0.0073984623506756515 0.0
198 2 14.025817709965585 9.99718623983219 0.0 -0.01638468463836823 0.023903268542000325 0.0
199 2 13.452749652912543 16.927703646129597 0.0 -0.015329211550228157 0.03165838807762591 0.0
200 1 1.1805242140189267 1.9084046655773608 0.0 0.04592461670936879 -0.0715286239946704 0.0
201 2 17.96066204174392 4.552354837639759 0.0 -0.011551099680862079 -0.02362944221349639 0.0
202 2 8.597917849447173 16.518177479816046 0.0 0.11917865887669221 0.08160319634354561 0.0
203 2 16.0398774607563 3.6469620159859417 0.0 -0.14904403904380487 0.02571113804696373 0.0
204 1 1.652974440793809 0.04440421519856489 0.0 -0.006637569815418415 0.060918655561252706 0.0
205 2 6.139804265139151 5.285630703701458 0.0 -0.00492670356352573 0.00307631740456329 0.0
206 1 16.769651127912464 11.482148833789807 0.0 -0.040625520310269454 0.060795737067136785 0.0
207 1 17.40035465794118 11.66968359228809 0.0 -0.09204605302146557 0.08627769562891234 0.0
208 2 9.276611195803282 14.034735792031702 0.0 0.004077630856860942 -0.06359054770531251 0.0
209 1 8.259735042784206 0.8554772793826861 0.0 -0.1505887747251848 0.04497039386370422 0.0
210 1 1.0452822596190448 13.086908707690275 0.0 0.015874439434817974 -0.025310528272339535 0.0
211 1 1.8381288638172055 0.7070249984028283 0.0 -0.030713041316847493 0.041661297233628124 0.0
212 1 15.667167529877545 17.179357656398697 0.0 0.0016774977724505744 -0.11131189887697177 0.0
213 2 4.969571047442246 9.621631977696705 0.0 -0.009999127929418447 0.05346608871476795 0.0
214 1 3.2985365419479837 9.61236871765668 0.0 -0.058296042489247434 0.07527653845753665 0.0
215 1 18.439876501249127 17.02109552545852 0.0 -0.07876304937667407 -0.015183983812340585 0.0
216 1 19.53903492840732 14.178431220534423 0.0 -0.005335721085102781 0.13604187527147144 0.0
217 1 5.400813541538379 6.120903919555953 0.0 -0.046374070010727075 -0.01547225290069229 0.0
218 1 13.215862839747057 18.9396087877135 0.0 -0.07742159640540008 -0.009869463134108317 0.0
219 1 12.648629250870846 19.27362450936128 0.0 -0.11015115887612048 0.008569961168162285 0.0
220 1 16.064432296465704 0.46148744239218076 0.0 0.08089717918411472 -0.07480066268194636 0.0
221 2 15.987080871306313 10.671861504349158 0.0 -0.08114618409518376 0.049452081102522825 0.0
222 2 12.232906125515733 8.764624440391533 0.0 0.0675249233826242 -0.10311004553493401 0.0
223 1 18.613054729462494 5.441321052355742 0.0 0.04778310831353891 0.054275527777152666 0.0
224 1 5.849615365108171 14.755888681371031 0.0 -0.0517635025567028 0.012110039866502042 0.0
225 1 16.67554625366025 19.138073815240023 0.0 -0.07024769868976241 0.12566412513610115 0.0
226 1 12.739011425526083 17.774954658382274 0.0 -0.10775677230649014 0.0190535644970817 0.0
227 1 0.45487783379099705 14.221386521100781 0.0 0.08232634404029253 0.13529493308255613 0.0
228 1 19.29720081236985 16.014365222717036 0.0 -0.03377815873512593 -0.1174482299231252 0.0
229 2 10.069556586706959 11.401733631323767 0.0 0.007024866338673391 -0.03189965537583244 0.0
230 1 7.935893461181213 19.65408673648857 0.0 -0.04148348504360486 -0.06097736123487781 0.0
231 1 1.6274398575453897 17.424114947026737 0.0 -0.06683260778516446 -0.15096513806810755 0.0
232 2 1.3485694148758254 8.7713400956302 0.0 -0.013891619060435192 -0.054203439219154756 0.0
233 2 13.25658147232982 4.036164129436314 0.0 -0.0030252980262672645 -0.027663206110116963 0.0
234 1 8.519588824466707 11.859193854890442 0.0 0.057426498838294766 -0.011993330958078278 0.0
235 1 16.800318708954098 15.785612639479803 0.0 -0.03317284865975484 0.01826329323945106 0.0
236 1 16.3613209498656 5.642781901943268 0.0 -0.000924105559838679 -0.011326946132930647 0.0
237 2 1.4309975727146815 3.8562646276633736 0.0 -0.04255808258157547 -0.024129571094149774 0.0
238 2 1.3614203557403537 12.005641830020526 0.0 0.019599356122426626 -0.09034453770285672 0.0
239 1 8.911231485528237 1.1238404299169344 0.0 0.03851772821209729 -0.1761620506826836 0.0
240 1 12.103444373870753 13.717205932615014 0.0 0.08794559975098225 0.061510436107518614 0.0
241 1 19.136676432995245 0.5236572206703897 0.0 -0.2206367090547699 0.09233033848723106 0.0
242 2 15.088396038667163 15.535262265371882 0.0 -0.0752606619822743 -0.021045656140480925 0.0
243 1 1.5084842789217163 5.8069592023223455 0.0 0.0318149830798039 -0.029679256323927133 0.0
244 2 7.746887387217372 4.386681857471509 0.0 -0.07192397060282744 0.023485053403054804 0.0
245 2 19.48879101060595 18.545049452272174 0.0 -0.05816636396396286 0.07620255600261805 0.0
246 2 6.585717199962179 0.818950043917323 0.0 0.09055769603152423 0.07832562168076632 0.0
247 1 1.2765561518753474 17.96706399382653 0.0 0.16394456573021446 -0.1241488824093976 0.0
248 2 10.223455661556269 2.8858337890531867 0.0 0.050868818471896865 0.02362628431089708 0.0
249 2 18.251354680503024 7.85337673420984 0.0 -0.002257355850600986 0.014680796838225109 0.0
250 2 4.466367078989381 2.3987226681711147 0.0 -0.0222534601408395 0.01583937399105399 0.0
251 1 4.1755260605556686 18.91024261727561 0.0 0.1375152345539612 -0.171930448740953 0.0
252 2 0.9106029941748297 18.974283705904952 0.0 0.10202404373556924 0.05072806352158669 0.0
253 1 10.57833474736553 17.4371507352048 0.0 -0.10352318581675943 -0.04919826593343622 0.0
254 1 10.305127727972025 12.494403101802725 0.0 0.13967160510091592 -0.02093615065475846 0.0
255 1 17.883134100834024 16.582822050707296 0.0 0.002231728557903974 0.06317584427918736 0.0
256 2 3.608693289581756 15.047549545652737 0.0 -0.01720970827044845 -0.0766092569649807 0.0
257 1 19.725016784201884 15.45114509378317 0.0 0.018381499399686828 0.0040957408892308205 0.0
258 2 1.9881098015821987 6.784021718498006 0.0 -0.00919444645468637 -0.03593487152614153 0.0
259 2 4.766623510917087 8.39424020095193 0.0 -0.012700508578489585 -0.09635539345535694 0.0
260 2 18.035169196199615 1.838132554837577 0.0 0.018819225123077876 -0.023838487415260862 0.0
261 2 16.324659729984326 18.086641361713998 0.0 -0.02751546156565435 0.0035365926308576746 0.0
262 1 11.394049793039857 19.72520039970668 0.0 -0.2322024714900795 -0.021382767717570604 0.0
263 2 3.192971156438381 2.5681322766558887 0.0 0.01618591691857221 0.018341951547943502 0.0
264 2 13.299202066453581 12.519827585296245 0.0 0.03996432518378884 0.011724123402712873 0.0
265 1 5.904333390217458 12.142514614432462 0.0 0.03212675541468892 0.021323757887485584 0.0
266 2 4.860759914554477 1.203773931281431 0.0 -0.06052418043661358 0.030046019993953923 0.0
267 2 13.362344484065513 11.149768075630966 0.0 -0.05437294980924138 0.04963181869499871 0.0
268 1 6.016942740211217 6.373083441413514 0.0 0.00827829588707274 0.15535067808123276 0.0
269 2 4.14365394227673 13.926935458706684 0.0 -0.04253023189577709 -0.031548002517279655 0.0
270 2 10.953359798746893 6.308935712842616 0.0 0.06036730605403841 -0.012046118345722747 0.0
271 2 1.0633408966326117 15.182314657676283 0.0 0.025340214945704913 0.04228243490404897 0.0
272 1 4.8523085915081055 4.276639655332317 0.0 0.018901708196162194 0.07807524049859489 0.0
273 2 4.496733988487948 10.823980454418404 0.0 0.02084112283837935 -0.02934187276933596 0.0
274 2 0.13131225609949126 12.470445397656972 0.0 0.008368057846911676 -0.018009034183214763 0.0
275 1 17.220203566796325 0.3689035008256613 0.0 -0.1194020390799543 -0.005649361422321784 0.0
276 1 11.483976557279593 19.019590716603748 0.0 -0.02469530979623795 -0.08833143385410588 0.0
277 1 5.237362394218843 14.509011041377537 0.0 -0.038932540662383885 -0.07015998287372993 0.0
278 2 3.5972183881737863 12.786623709241486 0.0 0.03316642139924371 0.023822505171343676 0.0
279 1 0.9071349977390597 11.019241614651975 0.0 -0.06402202705397371 -0.005754287069964596 0.0
280 2 14.473161083405616 14.342891139626762 0.0 0.024530217746131087 0.009800261386319963 0.0
281 2 10.295035487984245 0.13474372733853185 0.0 -0.05331468086401469 0.044608874164694765 0.0
282 1 9.160573762683827 11.966026176982941 0.0 0.194974073416867 0.009130104116229606 0.0
283 2 2.681611690706972 11.85935729042161 0.0 -0.06446652134398125 -0.0055721252258939995 0.0
284 2 18.939693681388945 3.7791953867542607 0.0 -0.012029105663122628 -0.005031397740070289 0.0
285 2 17.212553835191663 10.471680891424816 0.0 0.012830227929051898 0.033334549470917074 0.0
286 2 4.778274211493553 12.081383765429981 0.0 0.08437425083190296 -0.04886476155654833 0.0
287 1 9.32768695371871 2.3056851360130852 0.0 -0.08783645938562448 0.04087556551017163 0.0
288 1 16.613242253709995 0.050759681963217736 0.0 -0.11596864848552493 -0.0731259892317003 0.0
289 1 9.283479659820268 9.228574866526731 0.0 0.03446906950967244 -0.06819237453226187 0.0
290 1 15.460003253812964 13.581951156719013 0.0 -0.028361279314057814 0.023224600547542818 0.0
291 1 10.918532652921238 4.422420365193736 0.0 0.1451185136850401 0.002313487707821489 0.0
292 2 12.182865425243977 6.377314280852672 0.0 -0.03756150372432948 -0.04880949525280426 0.0
293 1 10.766472191243857 1.1437083934344432 0.0 0.038478401948050515 0.1713533577622623 0.0
294 1 19.129741060264 1.9351302225641238 0.0 0.07650949690613328 -0.1810739836872419 0.0
295 1 17.444557070019286 16.043932602538156 0.0 -0.07485046715157546 0.008879819826931515 0.0
296 1 6.616004372869733 12.10964175199269 0.0 -0.010457593158239055 -0.08132120562911241 0.0
297 1 3.687595801863066 5.766545954183555 0.0 -0.023248446030543733 -0.005843158726779474 0.0
298 1 9.85934315548055 13.057396055967867 0.0 0.07730434657709437 -0.010628623879465546 0.0
299 2 15.495032252259456 4.864923240206614 0.0 -0.041022995118148074 0.04112100171070168 0.0
300 2 13.75097044744513 0.7686504439416363 0.0 -0.05288654911152423 -0.03219044518720577 0.0
301 2 18.45956676465767 10.241153235610994 0.0 -0.0418397818444692 0.06523346201891385 0.0
302 2 12.769502614229815 9.899449509989179 0.0 0.0629294522018468 -0.03438253816783011 0.0
303 2 15.301073364576789 2.655094450225708 0.0 0.004780026964341837 -0.043750907254687096 0.0
304 2 12.044808599874305 10.873233094231649 0.0 0.07212638072437472 -0.023846209972488232 0.0
305 2 17.47836417545207 14.935963461786317 0.0 -0.06193012322049833 -0.025442034486454206 0.0
306 2 2.3195692894322724 15.131920965582117 0.0 0.01908195843000687 0.02480200177415306 0.0
307 2 7.542020923900967 3.1512879768138915 0.0 0.07231051191782263 0.022702543805163632 0.0
308 1 1.3149307491199111 7.65774541671455 0.0 0.09666835338012088 -0.07018806018817522 0.0
309 2 13.825523384620574 18.07055667189065 0.0 0.0021980601181611843 0.00992273632753804 0.0
310 1 11.307200599917284 0.6346201994221902 0.0 0.08105103920165657 -0.06701846879484033 0.0
311 2 14.993971291575752 0.6059478274657362 0.0 0.032684211332438186 -0.0014777999999196132 0.0
312 1 1.5270046688430972 5.085212301087212 0.0 0.010098485736633847 0.04106623659585141 0.0
313 1 7.642853423902253 0.48238940162569977 0.0 0.17019645880138104 -0.08771938076092743 0.0
314 2 2.894004114466815 14.003201954855376 0.0 -0.01949783520572883 -0.0027170365083694892 0.0
315 2 7.281137576678042 16.599390243656647 0.0 -0.01535088664163876 0.021351278708617315 0.0
316 1 5.564776920524361 11.27009254494897 0.0 0.020558571621083318 0.09892405362990202 0.0
317 2 5.354890802309387 3.317627179661162 0.0 0.09015584376745325 -0.06490674067278895 0.0
318 2 14.18355707474161 6.091771938835732 0.0 -0.01246131201064756 0.14477361849967924 0.0
319 1 0.05403059440028393 14.782018540423415 0.0 -0.028452131783477115 0.022170464145425364 0.0
320 2 14.69049349143991 3.7566939334858813 0.0 0.05173452368405532 -0.036948187014905105 0.0
321 1 15.316866333100663 12.916379270667807 0.0 -0.013157332545795345 0.022817308313500352 0.0
322 1 17.075558759817962 2.3591562258809304 0.0 -0.04371836991342601 0.0031002684912901485 0.0
323 1 5.359706166527058 15.211467617778936 0.0 -0.06760714066955756 -0.02400816189895705 0.0