ITEM: TIMESTEP
0
ITEM: NUMBER OF ATOMS
400
ITEM: BOX BOUNDS xy xz yz pp pp pp
0.0 19.7609 0.0
0.0 19.7609 0.0
0.0 10.0 0.0
ITEM: ATOMS id type x y z vx vy vz
1 1 14.5700126819133 2.269184995340325 0.0 -0.19611406589910735 0.036299919089794006 0.0
2 2 2.311527635932076 17.42657197928034 0.0 0.03461699641361424 -0.0636489204697109 0.0
3 1 3.6380589058310107 13.329794481648834 0.0 -0.04326056083532472 0.03354165807883227 0.0
4 1 12.202012150448908 6.15835250537379 0.0 0.05989431046221228 -0.01503558471077799 0.0
5 1 1.2919514242059755 1.8930310093756233 0.0 0.036485164146362735 -0.01730377446158727 0.0
6 2 0.3552196326459318 11.406781787600027 0.0 -0.06988670088351291 -0.002956168421988073 0.0
7 2 19.49290983279948 7.600683331116504 0.0 -0.013870051235582097 0.028624008076097315 0.0
8 1 5.152132455816845 15.133868936535151 0.0 -0.19600331233237459 -0.0946032750135592 0.0
9 2 8.380177845354938 9.987146412442025 0.0 -0.12900951657563234 0.00951961497626029 0.0
10 1 5.675905594605821 3.7419660509501345 0.0 -0.03526318355890206 -0.02288660874544291 0.0
11 2 7.320611840713024 13.735302078486502 0.0 -0.09177208030284091 -0.0845354604154277 0.0
12 1 14.975389819836955 2.8213644330461842 0.0 0.054915278453398185 -0.025229555104772226 0.0
13 2 18.354351243853937 17.349227451914984 0.0 -0.02782016497503265 -0.019391177877041917 0.0
14 2 17.08496957957327 8.169843157749622 0.0 0.03886651298589883 -0.037365278894499386 0.0
15 2 16.669603880116078 19.539123654309385 0.0 0.009943486318134246 -0.033058698338537744 0.0
16 1 16.346421292437213 14.104580903120238 0.0 -0.09829948841040113 0.03986264562268611 0.0
17 1 1.4060362532095088 18.836918969995146 0.0 0.06349094502135766 -0.006918705979334667 0.0
18 2 10.925728005692083 11.295881551881905 0.0 -0.03320710388618242 0.01512703114893236 0.0
19 1 9.516687508300032 10.018478046982555 0.0 -0.030041789007110353 -0.0012353109980476702 0.0
20 1 3.340924186043529 7.100611470909827 0.0 0.08095726498014157 -0.0407034439240027 0.0
21 1 11.885656156152526 13.567647356783157 0.0 0.0205688180015578 0.03925374055889065 0.0
22 2 18.809591868735932 1.1801884503800222 0.0 -0.011104788492091462 0.014365603287434987 0.0
23 1 4.407571898079383 3.428964589535513 0.0 0.23482654605378608 -0.15275383454036348 0.0
24 1 5.082824225342145 3.359694449732736 0.0 0.010479989243488875 -0.03004603427822115 0.0
25 1 15.965014611089277 10.35363716266908 0.0 -0.10859550593916732 0.04705089917796934 0.0
26 1 0.4071595666727637 13.56131647942065 0.0 0.044977256091895984 0.026422222906305595 0.0
27 1 7.516559117165193 9.238519540679707 0.0 -0.009436311180277655 -0.027383660959003547 0.0
28 1 3.0258233456792065 11.868904519591288 0.0 0.015977998533761077 0.09519405538211304 0.0
29 2 2.7665640493522385 3.869069207806538 0.0 -0.05100591260071448 0.043928686416055567 0.0
30 1 8.947255990389824 13.449610258315632 0.0 -0.10932961468471356 0.12685323454717112 0.0
31 1 15.760530545519885 0.4088996018762799 0.0 -0.032050333533779736 -0.04722656686180445 0.0
32 2 6.756962562946594 2.756649933432628 0.0 0.017208602722400507 0.06987190729242079 0.0
33 1 16.29255024370615 18.475767535232002 0.0 0.14836985492378785 -0.12347611128738253 0.0
34 1 16.796412652586255 15.320786796098599 0.0 -0.05919175113780641 -0.07042990703979118 0.0
35 1 15.063931999968649 7.428556841654064 0.0 -0.02183676940036587 -0.12984703430106573 0.0
36 2 12.179464806915352 11.339689672861535 0.0 -0.06859866292207611 0.06695278531845031 0.0
37 1 13.049373838145549 9.153050587664614 0.0 0.1330428515657299 -0.07951758411457707 0.0
38 2 19.053374682218198 5.056922126639886 0.0 -0.03912842190240121 0.004363058804693061 0.0
39 2 12.33217485481912 8.296254071581707 0.0 0.018460929445589816 0.029832690934319107 0.0
40 1 3.814142280495303 6.641718155790327 0.0 0.026898252240019186 -0.07088517061016009 0.0
41 2 12.766539927428655 2.82693955859287 0.0 0.017724900720612228 0.022662373497893885 0.0
42 1 6.83766766404685 9.109432070811707 0.0 0.08295499760291893 0.09799895937252716 0.0
43 1 2.795140344155562 8.239252005819075 0.0 -0.05028235080282291 0.005196304849977477 0.0
44 2 7.993160729365426 19.380055953430553 0.0 -0.04182658931761961 -0.0025281277996734674 0.0
45 1 8.12043918394129 5.844120286227621 0.0 0.04533820974038 0.09553861901171441 0.0
46 1 2.3696358373108404 10.677787012098365 0.0 0.09581211736675617 0.08491013320903841 0.0
47 2 17.310704211645795 13.527754185443914 0.0 0.048147719482862616 0.03587245911307957 0.0
48 2 9.785926357272569 17.94559590938487 0.0 0.026060289635612265 0.009336081246680247 0.0
49 1 6.17891629717799 15.917474469993783 0.0 0.051348579747347536 0.016069288261733677 0.0
50 2 13.935242747307438 6.334718122684247 0.0 0.05425246339174837 -0.013423794755148145 0.0
51 1 4.470579175335879 6.540745313127049 0.0 -0.01732260354096291 0.045850447257422405 0.0
52 2 16.406985414326936 1.8660099237248624 0.0 0.05341293836934944 0.04043265325251787 0.0
53 2 4.687008292960953 19.576731477875708 0.0 -0.03480154767997656 0.00558428414933837 0.0
54 1 15.678053792030429 1.0691057643470736 0.0 0.059687454841882204 -0.016423362678138057 0.0
55 1 7.307728817440871 17.792637698702183 0.0 -0.1362597168698677 -0.04765948088560422 0.0
56 1 1.6453005193881207 9.566070593168748 0.0 -0.06996087910624944 -0.15985746814857296 0.0
57 1 17.62861133146775 19.005685409440282 0.0 0.08820661910111689 -0.10564687399561976 0.0
58 2 15.143335209632793 18.002809118691964 0.0 -0.042528332226130824 0.0770839885444737 0.0
59 2 10.011581376598347 12.099488207864882 0.0 -0.0010566409174547718 0.03559528108304414 0.0
60 1 17.229110032965753 17.416265418217446 0.0 0.04884324402297616 0.005350614935083992 0.0
61 2 19.286261203020544 14.16708333357534 0.0 -0.031049531415691962 0.01603522235001176 0.0
62 1 12.13175240452883 14.224613581848804 0.0 0.018933011532372916 -0.07029412981830321 0.0
63 1 2.3524393005037854 11.861724491973414 0.0 0.04635233480340802 0.08652311536634161 0.0
64 2 8.404527168318184 18.096363945099913 0.0 0.04887850861143038 0.06433049044402053 0.0
65 1 17.121677782724404 3.378466962486863 0.0 0.01957348373087358 0.007994657626284913 0.0
66 2 14.458425095646524 11.884586657219112 0.0 0.004454675534959026 -0.062473508791914545 0.0
67 1 15.550488053116673 19.544623175625794 0.0 0.008371037487719469 0.1193272802528558 0.0
68 2 15.723802344497766 11.440451565379888 0.0 -0.029107400351885058 0.03009844832741989 0.0
69 2 6.706734907886398 14.82354422310272 0.0 -0.09574250289475014 -0.03951715762810418 0.0
70 1 6.940392247071185 18.986553901336663 0.0 0.023722326559428738 -0.04557983100189667 0.0
71 1 0.5280361979897943 8.377133676006116 0.0 -0.09497940881464904 0.10620045503682696 0.0
72 1 14.013855365937788 16.769865003091848 0.0 0.02180645412885767 -0.044712169556058556 0.0
73 1 8.773839647092231 1.5980990547025447 0.0 -0.01728632615152912 0.04776373574333789 0.0
74 1 17.768583696825523 3.187164032147594 0.0 0.06815873090274069 -0.03987102972926967 0.0
75 2 0.5504031677069826 5.310266553035113 0.0 -0.012576371364598006 -0.024879997084834286 0.0
76 1 14.10463200726388 3.851192490763788 0.0 0.02471953883313027 -0.07973257367669341 0.0
77 1 16.26692334025387 6.2938204995892 0.0 0.16591300155382271 0.04848090775888849 0.0
78 2 7.630518657260044 11.615232203842842 0.0 0.052437346343790665 0.0854899774409001 0.0
79 1 13.170849320314577 13.415518014654504 0.0 -0.009016539817404119 0.135941822046995 0.0
80 2 3.5902919781836116 17.603734245653488 0.0 0.019978141367599397 -0.0558184552165076 0.0
81 1 3.6666685389429783 4.50452709678471 0.0 -0.04485197249626428 0.06558450978469783 0.0
82 2 11.02254675124045 1.5127880063378683 0.0 0.08810859844207196 0.06996426624227493 0.0
83 1 2.1465510701951747 10.023777750886207 0.0 -0.06292228215714148 0.043405908370824024 0.0
84 2 7.933666281059421 2.2895614175398964 0.0 0.10276684633897616 0.08431015393470556 0.0
85 1 11.495212399071683 14.46342248785738 0.0 -0.03429020567631565 -0.012834454255663189 0.0
86 1 0.3974155452327628 14.880969143304947 0.0 0.06407375385073093 -0.008027278010974945 0.0
87 1 13.53360593844899 10.410626838271657 0.0 -0.05031711153202988 0.002156378143320679 0.0
88 2 14.038420318714184 0.5055038102545333 0.0 0.03697211414752541 0.06671969851375835 0.0
89 1 12.56050707036178 13.684687351185609 0.0 -0.113548090003506 -0.05727453158986594 0.0
90 2 6.244019981372172 18.120028503548646 0.0 0.08006442118650701 0.03685854500136132 0.0
91 2 19.31558037633114 10.157000994686607 0.0 -0.026488798449728557 0.03521246230663365 0.0
92 1 8.114559983996454 8.911427366018605 0.0 -0.05177479883934543 -0.04676860229055505 0.0
93 1 2.0230466450260076 18.492245513678782 0.0 0.04107176176065326 -0.1563914927887482 0.0
94 1 14.67637384530388 4.889052328415151 0.0 0.0031943928874481405 -0.056730733558077104 0.0
95 2 17.86463399063985 5.637153104352122 0.0 0.0029654603559971238 -0.01415965921984941 0.0
96 2 8.871850992473421 6.646003967417155 0.0 0.08382116348340446 -0.04837823068246157 0.0
97 1 18.323467298347964 19.034201552121726 0.0 -0.12518762757438667 -0.026037983106707387 0.0
98 2 13.305656434806998 19.14609977972403 0.0 0.0750223716407022 -0.043068456811253084 0.0
99 1 9.620470110176882 13.656305987046233 0.0 -0.13346127498466456 -0.1136367324634895 0.0
100 1 16.8246030337121 14.621123078025795 0.0 0.03339850370657068 0.06020698166333241 0.0
101 1 18.00011757306076 18.43908029013759 0.0 0.11333743074593099 -0.12960757546326804 0.0
102 1 16.816410927218104 17.96154415523683 0.0 -0.08385393784540959 -0.08266347490672715 0.0
103 1 10.261052079192824 14.730253491053766 0.0 0.13859719816351948 0.0058848852727923905 0.0
104 2 7.345030221027435 8.143860006752726 0.0 -0.07578396883452505 -0.011304205694306058 0.0
105 1 13.99183948857206 2.6692965392493693 0.0 -0.11038287214877679 -0.03608602506668118 0.0
106 1 14.405941908256636 3.1992290963932 0.0 0.02487385988629341 -0.09048123642396218 0.0
107 1 17.495654137393732 18.02183037861856 0.0 -0.08841487505306563 -0.051291738525210434 0.0
108 2 11.536954024844043 9.291326048016616 0.0 0.040723483374610084 -0.06290328549319259 0.0
109 1 11.427204757842489 18.31487363813273 0.0 -0.04185860977201919 -0.009452973000468363 0.0
110 2 13.041632155853627 5.445141362470123 0.0 0.011959635817799779 0.03732935958435559 0.0
111 1 14.39861289158857 7.329337624303124 0.0 -0.27691252235659475 -0.03707292753837025 0.0
112 1 8.558263935937354 15.875973157534453 0.0 0.03879442336579551 0.026343589653973792 0.0
113 1 2.014284398579446 11.281232797161998 0.0 -0.01055392434507308 0.053461073775228116 0.0
114 1 18.986300186031215 19.084263453035877 0.0 0.07178904544553104 -0.11548193795858451 0.0
115 1 13.21343056101959 11.014833288075952 0.0 0.05664568004165778 -0.008939447279138675 0.0
116 2 12.933390745650199 16.989029070956967 0.0 -0.030669084404532553 0.05032415802915526 0.0
117 2 11.045485278544728 15.471132219764518 0.0 0.044095533104467344 0.013306157690689279 0.0
118 1 2.5492989692027335 15.293969273357124 0.0 -0.029120856168354234 0.030851260112053875 0.0
119 1 18.21789841699924 12.885172357626812 0.0 -0.07217030378628625 0.07824498234793634 0.0
120 2 17.6715492435811 4.352905070672298 0.0 -0.06988438312048566 -0.023886837868470664 0.0
121 2 18.287586231277114 7.8869102270254094 0.0 0.014883826243716184 -0.013906939186676532 0.0
122 1 16.75738414753135 5.830709665146757 0.0 -0.011913969281123421 -0.12916442123844887 0.0
123 2 0.5784679484727575 9.46357119660501 0.0 0.08297520097196227 0.003457967140064298 0.0
124 2 5.415977260316913 2.031746304624184 0.0 -0.0653303897824955 0.07275111713387217 0.0
125 2 5.252832638698451 17.38645068711566 0.0 0.009543657063777855 0.022933625254842587 0.0
126 2 12.273158480445613 1.6740195867929415 0.0 0.052872369413279365 0.019001864888429205 0.0
127 2 11.938019054398891 19.32949611168674 0.0 0.05453375653424966 0.05096554551903607 0.0
128 2 4.180455919541906 15.575237009318535 0.0 0.10448675702425218 0.06257836016182347 0.0
129 2 15.428539523662595 12.674754048834524 0.0 -0.07304902595032702 -0.015695318945165244 0.0
130 1 3.7613222737571035 13.97838341811659 0.0 0.12656053162697492 -0.014170857969173334 0.0
131 1 12.04075191443505 3.6954179478357214 0.0 -0.04158795330715525 -0.12223235505095113 0.0
132 1 6.376609653505564 8.610232226651965 0.0 -0.023723250239605788 -0.09444220137541409 0.0
133 2 16.103370982378532 16.170756477732002 0.0 0.0014368175697864855 0.023040419477561885 0.0
134 2 3.708169648568595 18.85785902372686 0.0 0.048592006954097086 -0.012787817392682676 0.0
135 2 8.747173662478222 12.22476529044414 0.0 0.03187011414976245 -0.02041996480019705 0.0
136 1 5.149711301975595 18.507500837357476 0.0 -0.06495743674728745 0.016509987919316352 0.0
137 2 3.726516468232187 11.013638762461651 0.0 0.056173690348176215 0.012426208815355175 0.0
138 1 5.26126693225364 15.802506369257998 0.0 0.09267888080822788 -0.0846670031531964 0.0
139 1 18.4228891120327 16.246649688176653 0.0 0.05811983015955959 -0.032577852075275575 0.0
140 2 10.223028553543653 6.978477400202374 0.0 0.07192588123312177 0.03137066700040273 0.0
141 2 19.240881957099656 8.821830767494168 0.0 -0.06835048515857921 0.0035943910228412443 0.0
142 2 2.6529178600173053 12.911021536183805 0.0 0.06382687702129738 0.0643966432895191 0.0
143 1 6.600773636179038 9.719366874547822 0.0 -0.03693516198269801 0.11331445058293194 0.0
144 1 3.646726619384255 14.635428696477387 0.0 -0.0282408567022702 0.033442436233476674 0.0
145 1 16.457209548941794 9.839912936028234 0.0 -0.06393971567640523 0.1062894399875869 0.0
146 2 4.941018126759509 11.259588598817306 0.0 0.09240097739176675 0.014137047751552003 0.0
147 2 17.878729203805932 15.226808079669787 0.0 0.025914374977796487 -0.040340575762580454 0.0
148 2 18.007374259397384 9.171836673996133 0.0 0.024997586483251063 0.055713735928435856 0.0
149 2 3.992689190737323 5.543558131174386 0.0 -0.027255700344490576 0.056140067490237415 0.0
150 2 7.9714169937593145 16.915961257326284 0.0 -0.08813438360861911 -0.019736773987926785 0.0
151 2 8.073305357475663 4.714704742107057 0.0 -0.009706524810222992 0.18014745112574676 0.0
152 1 9.62694146226533 4.290803473882217 0.0 -0.017362836602191702 0.009656963932871436 0.0
153 2 1.2955181212679898 0.20498528888091846 0.0 0.01908569798103853 0.09703871639649678 0.0
154 2 16.05489235168738 3.0057314618995155 0.0 -0.049595514013147816 0.07241968690970987 0.0
155 1 17.190209027800538 2.709235066596536 0.0 -0.025756588672044993 -0.006732625125663688 0.0
156 1 15.754240085403664 18.905877571952455 0.0 0.11147031234189055 -0.038295852907720605 0.0
157 2 2.269160961491485 7.257842132785442 0.0 -0.10006416122604339 0.039869811297750385 0.0
158 2 5.209309171594107 5.760932873476601 0.0 -0.0049095524388737865 -0.008365156804923212 0.0
159 1 11.273511551218533 13.82359266605414 0.0 -0.04974229825165811 -0.02700045012871861 0.0
160 1 4.315508740238838 2.173278475604416 0.0 -0.0010685687456257976 -0.04735223758814218 0.0
161 2 9.79264409393505 15.737076656030498 0.0 -0.1184789497270243 -0.006363538490722833 0.0
162 1 7.811795257232471 6.980581769475138 0.0 -0.06747962442152296 0.02462144380131292 0.0
163 2 13.045525506245504 4.160438746281263 0.0 0.03892374004686548 -0.0025651595205342086 0.0
164 1 5.638942942609501 14.70186106251725 0.0 -0.02404606025569518 0.022671896962994674 0.0
165 2 16.409112546704133 4.196169334793645 0.0 -0.07796788170003652 0.1178277249271688 0.0
166 1 13.992999127049549 14.911394544386521 0.0 0.05702085904906327 -0.08217457351751764 0.0
167 2 14.575822880313362 19.090255605431985 0.0 -0.04513019361875185 0.03118094126143846 0.0
168 1 10.806749724339506 14.34282173460472 0.0 -0.08986978330392274 0.044375539676024714 0.0
169 1 9.928212521374332 0.1958836673000093 0.0 0.1635487697776909 0.10044416847594147 0.0
170 1 14.678596105633591 5.540527538875808 0.0 -0.0219148228264454 -0.08494140296902042 0.0
171 1 2.020751559543897 19.162993628660068 0.0 0.06001073759483813 -0.029272337695063492 0.0
172 1 14.723765555034644 8.581291623423784 0.0 -0.013862840211074345 -0.12794925294449028 0.0
173 2 18.07075709270566 10.471238702882818 0.0 -0.01840444316327119 -0.05075123043745919 0.0
174 1 17.110506897542297 18.56286499474553 0.0 -0.03598282264988333 0.2035139384143042 0.0
175 2 12.405213745129087 12.58981482029392 0.0 0.05069811096431676 -0.08499850885299765 0.0
176 2 0.15121333364150302 0.6596399863959693 0.0 -0.08325015852312868 -0.006860552756569723 0.0
177 1 14.182479904067655 14.246265180759224 0.0 -0.05774949272028763 0.1923162562429838 0.0
178 1 7.343759622008991 18.45515554697623 0.0 0.07382216876286983 0.008657017945194218 0.0
179 2 6.719532732527311 12.596008923420838 0.0 0.08624466123155128 0.03216516558862138 0.0
180 2 5.6833034735730426 10.275148858332052 0.0 0.09680034844067728 -0.004322429815671951 0.0
181 1 15.869509597144916 17.203288425140677 0.0 0.10978655294294355 -0.04482182826465411 0.0
182 2 6.593424715927095 16.9354985916738 0.0 -0.006276104522056429 -0.0618826658136786 0.0
183 1 8.999689002319759 4.115275065459984 0.0 0.09713990303473996 0.07534623934226599 0.0
184 1 6.085323888965182 9.234422547516756 0.0 0.13041266013808633 -0.010335069341982668 0.0
185 1 12.816118253441129 14.30862787706568 0.0 -0.019140971347003405 -0.07247482746809801 0.0
186 1 12.839530049460103 10.439720941352556 0.0 0.10759674564666652 0.04152165930377859 0.0
187 1 16.960048783705965 0.8638467412409431 0.0 0.016040240791097903 -0.029535070161540004 0.0
188 1 9.275172959468577 9.358014881358756 0.0 -0.1256488867301327 -0.07180699235223634 0.0
189 2 16.88343498773602 10.975161267863115 0.0 0.034331924346535196 0.023062716410909005 0.0
190 1 4.556374094025863 18.200724194881797 0.0 0.05573202417682141 0.012867967685685806 0.0
191 2 19.647053208842514 17.4105818746292 0.0 -0.03820490970426025 0.016933949123284872 0.0
192 2 11.138420597809155 12.712537569064146 0.0 0.09255103231194359 -0.019631965812486638 0.0
193 1 0.7499038464395901 18.16177326989327 0.0 -0.03897429314274769 0.05699649893112143 0.0
194 1 3.071919400381881 4.941437795600917 0.0 -0.04758910044587096 -0.0069847854151382305 0.0
195 2 6.854369582430866 0.2969357861812333 0.0 0.0026289821117839005 0.035752095978280087 0.0
196 1 12.696266433140512 14.988610523000704 0.0 0.11372210671731181 0.10117205676976505 0.0
197 1 7.790935650268503 12.741389743233924 0.0 0.018376904677477202 0.12493938456370106 0.0
198 2 3.8106653912274027 8.750457534842319 0.0 -0.028761337940711576 0.08170353610547636 0.0
199 2 15.408817330367315 9.409863577807824 0.0 -0.02240791124971658 -0.040575138403332114 0.0
200 1 10.221658977715874 10.382996679975854 0.0 -0.003940451592881617 0.02619236336690499 0.0
201 2 13.423065929942902 15.834292272887367 0.0 -0.001454052446279111 -0.08715121359528359 0.0
202 2 4.362854845511801 7.633090510585155 0.0 -0.04586898641122674 0.028689964057160636 0.0
203 2 5.892665567206859 19.29810113581558 0.0 0.0158530565256581 -0.030060350812796406 0.0
204 1 15.605643660058028 6.404180553509569 0.0 0.16296193372481388 -0.05684810964737653 0.0
205 2 9.812162533720095 1.3480879971115878 0.0 0.034630769930038725 -0.05112654328997784 0.0
206 1 1.4541216586477093 11.673315028310615 0.0 0.0662572435632769 -0.1987022015507736 0.0
207 1 18.737001341690696 12.457737933077071 0.0 -0.0626420688221648 0.08050184689252453 0.0
208 2 2.861275797289416 6.079090356782238 0.0 -0.16677575078443996 0.0029776544289359026 0.0
209 1 14.086027578736063 5.213054827745452 0.0 0.08660198260883521 0.008551167341430228 0.0
210 1 13.480726300488648 14.046970695959146 0.0 0.04733095152101158 0.04108909783733214 0.0
211 1 10.712596107772388 3.5889646153394166 0.0 0.044475380068805095 -0.08551445981649008 0.0
212 1 14.681710497021237 1.5909239936337511 0.0 0.009595293614618812 -0.026381751026211337 0.0
213 2 15.728456421040383 15.009617022435334 0.0 0.006184549443396889 0.04082993073055626 0.0
214 1 3.875489454900332 3.864741351917531 0.0 -0.09245361804455565 0.11117588989898755 0.0
215 1 18.664615374132087 18.44290391624498 0.0 0.0018998285640609823 -0.03887064140324846 0.0
216 1 1.676085267853283 5.139864423349757 0.0 0.006932069400817682 -0.06668477082644454 0.0
217 1 11.36146632268907 3.83919374822058 0.0 0.08029321302526596 0.032598797472403934 0.0
218 1 1.0649370831790903 1.2720045548622931 0.0 0.01867636928966463 -0.1281224009942796 0.0
219 1 0.6167655761012429 14.21877055097629 0.0 -0.14674780250883349 -0.10846134971644424 0.0
220 1 8.406567790097812 13.864381026862304 0.0 -0.07344776240553252 0.06469965602046712 0.0
221 2 7.294079972481022 15.897992946113979 0.0 -0.008856997745756661 0.05358732812145999 0.0
222 2 9.202620868147495 16.85378120906455 0.0 -0.10723727323148152 -0.09566921995842013 0.0
223 1 8.631384866093622 11.083467161857262 0.0 -0.0016671876773511497 0.08744148336623965 0.0
224 1 19.630628724946728 3.032160947730025 0.0 -0.03897742413997217 -0.01118847425153024 0.0
225 1 8.792944156090885 8.903634824973889 0.0 0.09124306478902433 -0.020840274410408578 0.0
226 1 13.863030789269885 10.985305079242355 0.0 -0.07751519230142305 0.16601760662888576 0.0
227 1 11.751445635665918 0.6927635088615289 0.0 -0.08847099243559339 -0.043604374127407544 0.0
228 1 1.7955541365034824 12.24609942976961 0.0 -0.248651450019264 -0.16868337507773995 0.0
229 2 10.503444622641226 16.833311511093378 0.0 -0.1043200623374022 -0.08147934564947777 0.0
230 1 3.18325902936242 15.137448335747226 0.0 -0.09587464493193666 0.05055188455256609 0.0
231 1 7.262411705816751 9.871389316785944 0.0 0.05863430387714025 0.03945515073830511 0.0
232 2 15.231052087034309 13.891970626214755 0.0 -0.07945862131306093 -0.055373039282085486 0.0
233 2 0.15893228007756965 1.9486479062174829 0.0 -0.05302437424652189 -0.06288549115157081 0.0
234 1 12.549688683215107 9.585439820887379 0.0 0.04604627569968213 -0.07144125724116282 0.0
235 1 2.39450118280992 5.053689238809803 0.0 -0.07918325159931733 -0.07226978245022407 0.0
236 1 5.783553582016199 15.376114755118817 0.0 0.03783233488752486 -0.11645310154009081 0.0
237 2 17.790504168759558 11.875787629471409 0.0 0.03504661367114798 -0.06311700369781256 0.0
238 2 18.644155852180578 2.488120028664081 0.0 0.05620534497347267 -0.06124599440844324 0.0
239 1 16.576978352400655 17.213991541145734 0.0 -0.06373505504964311 0.09087602830006199 0.0
240 1 19.59079114216668 13.116695646160046 0.0 -0.033783022812338304 0.06079155505258252 0.0
241 1 15.267553317086536 16.885805709311594 0.0 -0.021648198541209057 -0.10899927257932897 0.0
242 2 15.739888836126347 5.28954201207721 0.0 0.09110810456444934 0.03186043994124174 0.0
243 1 10.1246456963849 13.204171536711392 0.0 -0.032472012642402875 -0.04358738717575162 0.0
244 2 0.1505683490905114 6.446086931136364 0.0 -0.005715668390564616 -0.08076320871254154 0.0
245 2 14.82752056325116 10.538414109822964 0.0 -0.014604786142525137 0.030863083474332847 0.0
246 2 0.29246625315070024 4.057078477042694 0.0 0.08223219133463527 0.04085787841290605 0.0
247 1 15.106957694232847 0.2891704646916108 0.0 0.007293894791505558 0.03513379045050636 0.0
248 2 4.791389827580473 4.461651390649 0.0 0.039122243108835136 -0.014500524101032763 0.0
249 2 0.45110245836529855 16.001733384559785 0.0 0.11985109345078807 0.10040222907511269 0.0
250 2 10.95696525361174 8.162576648040613 0.0 0.044565932246278264 0.06559315829319458 0.0
251 1 9.35147732603479 3.527243979784525 0.0 -0.11638650985547039 -0.04388165314200424 0.0
252 2 5.970367919394534 13.667482922375596 0.0 0.037528579073518316 0.03205033254073485 0.0
253 1 9.169878915021586 4.808531530690988 0.0 -0.014253662479972635 -0.11031223587367825 0.0
254 1 9.460615117838072 13.023190516253248 0.0 -0.008221535761392295 -0.029860437579308854 0.0
255 1 15.01473761340439 6.1120687778986635 0.0 0.00017504840159720538 0.04168604369558947 0.0
256 2 6.6329740656336424 1.5319208000395217 0.0 0.012259880248445947 -0.016032143025751976 0.0
257 1 10.90575597937432 10.20591416841683 0.0 0.015381863788174603 0.11554902632873809 0.0
258 2 13.561898089826958 1.6771908205974795 0.0 0.026143678804054497 0.010857082134323078 0.0
259 2 5.648358309511928 0.7680660701439049 0.0 0.048911447816480394 0.010793731686951262 0.0
260 2 0.3364631236847051 19.186209030972243 0.0 -0.042885635257134604 -0.02482157152625028 0.0
261 2 8.5155236789987 7.842352901401142 0.0 0.08233367065935553 -0.011265963287730963 0.0
262 1 4.9127095698249015 16.372621249112246 0.0 0.09707815214796935 -0.008381580550774887 0.0
263 2 1.1042238173938508 17.117197279354198 0.0 -0.0811629703563794 -0.04174586829251993 0.0
264 2 11.11803308693907 5.893709556867546 0.0 0.02439238151585029 -0.007255989855764221 0.0
265 1 5.633715123104568 16.357729161742913 0.0 0.06671061605261114 -0.04485801922067081 0.0
266 2 17.32844932783853 16.350916051210103 0.0 0.029905341790167232 0.006620588779906274 0.0
267 2 6.723315448666596 7.133712384472215 0.0 -0.00973991806343374 0.03198042206628728 0.0
268 1 9.004151170465425 2.8867442559087095 0.0 0.0802420983373466 -0.05619821807990832 0.0
269 2 2.6474326417076033 14.167803751791098 0.0 0.030298743188309753 -0.026502722891705903 0.0
270 2 10.118172766915402 2.6483799928220764 0.0 0.039628549414283315 -0.10593212643382165 0.0
271 2 3.3983437985661267 0.3205915959437506 0.0 -0.0011335095704947213 0.047407538537024535 0.0
272 1 2.271974592498776 9.373749303194241 0.0 -0.06642535800635402 -0.05391152985137942 0.0
273 2 3.1385038440299398 16.309231993921383 0.0 -0.0976238519159643 0.00047796869942829496 0.0
274 2 5.977734002786699 4.801035467153055 0.0 0.01937386124330507 -0.012114985322975735 0.0
275 1 7.465900352953596 5.640586733582645 0.0 0.010179276651490723 -0.07792434823894939 0.0
276 1 13.340268978360239 14.730283266932556 0.0 0.02815840690305372 -0.04165751205663215 0.0
277 1 16.368588476381678 8.966027547650762 0.0 -0.030910639923303854 -0.008931835338377929 0.0
278 2 6.428953155112217 5.9694565139968585 0.0 -0.05025584759168582 -0.08503988900018665 0.0
279 1 1.9513894555911828 4.546005133982505 0.0 0.06647890010674086 0.07732001628687389 0.0
280 2 7.813959851779868 1.057648418474199 0.0 -0.04469908767019023 0.012476431154172008 0.0
281 2 8.083159697252539 3.500477964318896 0.0 0.13770607099118456 -0.04650318839464981 0.0
282 1 4.946533417990724 8.676534745754541 0.0 -0.047198819706228815 0.05122514682934247 0.0
283 2 7.981454056209539 14.874019787679279 0.0 -0.014312197796909126 -0.09526679809106924 0.0
284 2 18.91008442279408 11.38904018888772 0.0 -0.013306522758557347 0.04766389692367469 0.0
285 2 17.652872146873968 1.7033098324465903 0.0 0.009910690209652023 -0.026907310413687702 0.0
286 2 14.724702003324447 15.905002237664101 0.0 0.02339576156638291 0.03645412814958507 0.0
287 1 11.177130522059853 0.37886935316038023 0.0 -0.010777150550528867 -0.010484265831843186 0.0
288 1 4.999934734215484 14.473417097739839 0.0 -0.07956342358652935 0.016658031680325255 0.0
289 1 7.057907797517958 5.083997559083612 0.0 0.11587295803025402 0.024291821405383857 0.0
290 1 13.460997011076163 12.35574830715052 0.0 -0.11107031004351516 0.13866527326461656 0.0
291 1 7.43988304145101 10.53814115041238 0.0 -0.009550037068644478 0.03676828179397824 0.0
292 2 16.67380378571309 12.417056104335224 0.0 -0.03776053141177336 0.0032823034414211057 0.0
293 1 4.620769440260171 2.7945568501023397 0.0 -0.0016810002929475468 -0.019658130462468535 0.0
294 1 10.13733013633426 14.08278630096086 0.0 -0.015665312623482388 0.12547395772053524 0.0
295 1 2.684033354491144 11.27683779977987 0.0 -0.026188415475354287 -0.12732322132336427 0.0
296 1 9.863503812521948 10.969007629493536 0.0 0.05866100593863502 0.07477130809660248 0.0
297 1 16.87624049956398 5.172954398353461 0.0 -0.07081237607247991 -0.04150108834592701 0.0
298 1 12.221243157286501 10.19793794503653 0.0 0.1133349767026679 0.009101797954616013 0.0
299 2 2.24586944432964 2.427641776705772 0.0 0.04697213541087329 0.05570842693854864 0.0
300 2 1.6695578198069376 8.458056815099912 0.0 -0.015551507948729839 0.03220983564919057 0.0
301 2 16.1254063825432 7.381313352199618 0.0 -0.007079068992376897 -0.03853639970974873 0.0
302 2 12.893509330968183 7.063226533225573 0.0 0.02897932558645324 -0.04337885142929833 0.0
303 2 5.483316305236452 12.37627468976747 0.0 -0.07278427740220815 0.08453963422900361 0.0
304 2 1.5237462989977364 13.546478332484735 0.0 0.06915372973256168 0.0016345111184567372 0.0
305 2 1.2161369536105135 10.557750851945634 0.0 0.025146768386053533 0.0363107064499713 0.0
306 2 14.216096129953577 13.153835996156001 0.0 -0.04460546658820713 -0.019686059016632403 0.0
307 2 1.5445124512051636 3.508941844906497 0.0 0.07428161230085456 -0.07516021792471166 0.0
308 1 7.597648752674902 6.316128723949239 0.0 -0.10064697303973226 0.1224690327128471 0.0
309 2 12.52114492412349 18.17841201889057 0.0 0.017717126666942 0.030929781666923714 0.0
310 1 18.40510141031992 13.525543512553874 0.0 -0.22202157593705724 0.07389455286998027 0.0
311 2 6.889410653570747 3.98612605174139 0.0 0.07589083413806573 0.042330316663466545 0.0
312 1 17.144779296854747 9.910132630658664 0.0 0.0059777068881800444 -0.02206854214763783 0.0
313 1 19.083382777956633 16.469796905322085 0.0 0.049845311195494915 -0.02987272953535116 0.0
314 2 13.633328105910884 8.212154302534424 0.0 -0.04547124134643229 0.0038031066364222136 0.0
315 2 11.909518218107081 4.820046375036592 0.0 0.09174014986311944 0.03407315602892225 0.0
316 1 15.018390619197996 0.9717777755582625 0.0 -0.08331981676683456 0.10311647061154244 0.0
317 2 3.321353850378138 1.6123621679424256 0.0 -0.08430483236049183 -0.01764808713044987 0.0
318 2 3.4578999081823327 2.853189550433115 0.0 0.09440070616865877 -0.0664350047477011 0.0
319 1 2.701609780564876 18.444585734265065 0.0 -0.059987025340899496 0.053029382952505345 0.0
320 2 4.449245658570011 1.0678799502084424 0.0 0.07260583658494628 -0.012201726235291378 0.0
321 1 2.3679989794598817 19.748555652575288 0.0 -0.06981505384215196 0.04141007889672947 0.0
322 1 16.304719116650713 0.8000305275341717 0.0 0.04768748875029207 0.015991752534458035 0.0
323 1 8.772789224008706 5.542368031095869 0.0 -0.17397542154251217 -0.15470258063812672 0.0