ITEM: TIMESTEP
0
ITEM: NUMBER OF ATOMS
400
ITEM: BOX BOUNDS xy xz yz pp pp pp
0.0 19.7609 0.0
0.0 19.7609 0.0
0.0 10.0 0.0
ITEM: ATOMS id type x y z vx vy vz
1 1 5.094031644708827 14.761023195600712 0.0 -0.06594065296138805 0.12327364321707486 0.0
2 2 8.822701182665527 6.395891021393628 0.0 -0.06688817678105247 0.038545624192043944 0.0
3 1 14.555598017696367 9.056129531157694 0.0 -0.01243533109349978 -0.038827791845437984 0.0
4 1 6.506394690362444 12.947136587579864 0.0 0.15659589171716368 -0.058512679565876156 0.0
5 1 9.773436324239144 3.1569840561900566 0.0 0.16877873535256593 0.12155798608075125 0.0
6 2 10.632167105103909 17.983253273925325 0.0 -0.05982684900878668 -0.03387392129001837 0.0
7 2 19.658174459150324 6.120763297121358 0.0 0.00900539889201952 0.032924811864131806 0.0
8 1 7.541860742175841 4.35944022817365 0.0 0.029895977964896035 0.07482994622686054 0.0
9 2 13.35713417163186 3.4443972041634563 0.0 0.10745958778560752 0.028129564249730787 0.0
10 1 18.725116918563266 4.6393513954653365 0.0 -0.04835549635041481 0.01945029310134513 0.0
11 2 7.722159192232421 5.425653003612874 0.0 -0.051878791635068845 0.0853473805451018 0.0
12 1 12.281478197155351 19.588253274505394 0.0 -0.07656085237162386 -0.025217118650404435 0.0
13 2 16.703191791363317 16.390611132991985 0.0 0.022058273073774306 0.027919161206189536 0.0
14 2 15.970307128478128 15.390744680423309 0.0 -0.06114047960548303 0.049246356452974226 0.0
15 2 12.394731121108352 12.684524511666247 0.0 0.016602806835696055 -0.0009657754173199746 0.0
16 1 11.557082147221061 1.9026683683738241 0.0 0.04126224111982077 -0.09936529441510898 0.0
17 1 4.640089255064916 0.14566968405713696 0.0 -0.03322660177723999 -0.014858900431826154 0.0
18 2 14.0739629605985 16.27055685877819 0.0 0.04511306774944068 -0.003500658167192989 0.0
19 1 2.1564188492342256 2.9881875417483164 0.0 0.12698761048638124 -0.1023969676386404 0.0
20 1 12.528529954095811 15.654437057488625 0.0 0.09151781181934672 -0.16551574434253669 0.0
21 1 11.643121413175496 4.774111815747477 0.0 0.014870650458440765 -0.02167086675012939 0.0
22 2 19.089847526992358 1.7537491489957648 0.0 -0.042560599385131515 -0.008171840929301954 0.0
23 1 7.433098905358657 14.982621332658141 0.0 -0.0007857624056872713 0.03404742936290114 0.0
24 1 4.250982995553133 9.900866181875486 0.0 0.06432353369696707 -0.004647501438174138 0.0
25 1 8.543009492229778 2.729467904530934 0.0 -0.01122475985928019 -0.03859567134214346 0.0
26 1 6.748360751960788 8.239766455889193 0.0 0.1331079129949681 -0.07400846991429423 0.0
27 1 9.442515199527925 11.764606319850682 0.0 0.05897388805520694 -0.0766888249149971 0.0
28 1 10.366149527542856 16.265491716109818 0.0 -0.03770053982990621 0.04061276849416266 0.0
29 2 16.92364040359901 1.2500198967754286 0.0 -0.037430927445244955 0.006909089669075296 0.0
30 1 11.754246451342304 6.103748955866177 0.0 -0.014931904210897051 0.05158115661905133 0.0
31 1 3.5962357539437697 9.744960785774392 0.0 -0.0033227635253801372 0.005275419570762058 0.0
32 2 5.414101168066736 6.337324166765288 0.0 -0.08329267630534294 -0.04075903834095933 0.0
33 1 12.053818142954425 16.117785739980235 0.0 -0.086149663397266 -0.026031314391850347 0.0
34 1 3.311990958593541 10.341522344988125 0.0 -0.062037552881184885 0.026237777756486787 0.0
35 1 10.081947523070546 12.009197477031911 0.0 0.03368945967818267 -0.12562502484485513 0.0
36 2 8.75750023733189 10.92799624028652 0.0 0.05450113704237576 -0.0018768803276828026 0.0
37 1 1.5376748277800594 1.4918172807133436 0.0 -0.0642308846095882 -0.12475282811924017 0.0
38 2 15.309429809177548 7.0042007464751075 0.0 0.012111380323839752 -0.009136385643904395 0.0
39 2 19.65376809090366 17.732589733933086 0.0 -0.02408518927288525 0.026165711451697146 0.0
40 1 5.6008887964297545 4.653889631874864 0.0 0.1689825339318871 -0.11133446220252463 0.0
41 2 4.6357428470756865 1.3124624902964115 0.0 0.03963074057510266 0.0040330274438175355 0.0
42 1 13.306645205991305 7.540498930635831 0.0 -0.10434162587600909 0.03222520848876318 0.0
43 1 4.9221037104291305 9.803388777094371 0.0 0.012857995779944849 0.03553994467488649 0.0
44 2 3.3200568108890183 6.575087030245458 0.0 -0.06152277145901544 0.006853948818282331 0.0
45 1 16.429088738377065 8.84380451312198 0.0 0.047649454819686 0.12715844829065068 0.0
46 1 4.009019546160464 0.34991195242048584 0.0 -0.1435772964762725 -0.1155723541554174 0.0
47 2 0.7783746942847207 0.02029175470569323 0.0 0.06459409214480832 -0.04185087709842411 0.0
48 2 9.04710895497498 1.061828853694598 0.0 -0.009137038985080257 0.018117124085138967 0.0
49 1 12.460818912816748 5.602199974055639 0.0 -0.04642804649761081 -0.04383603718298286 0.0
50 2 1.9350204691983213 6.5951755441026565 0.0 -0.0064710582326479 -0.01636299551276744 0.0
51 1 7.125418518365926 13.228493115991467 0.0 0.062873657903828 0.06210152507341173 0.0
52 2 18.8158016323292 11.520640673993384 0.0 0.02815139936118442 0.025808959426350517 0.0
53 2 3.2466386389513375 3.155040320892663 0.0 -0.009556686657620602 -0.01639529917272754 0.0
54 1 16.28223434412112 7.561319524348299 0.0 0.11685985705246751 0.08736254612036559 0.0
55 1 0.20073234887933172 5.0313447752433325 0.0 -0.04782854961580764 -0.05852531754493333 0.0
56 1 12.255672541759312 2.032762229333925 0.0 -0.09796894910240986 0.07116685147743496 0.0
57 1 5.547881075375436 8.69595661718802 0.0 0.050243751965184345 0.03163359230468301 0.0
58 2 15.927269487559181 12.970625704051757 0.0 -0.029268618322892053 -0.03963574299985464 0.0
59 2 1.9703035183503337 18.937063216726003 0.0 0.06025804421646101 0.043353963012355404 0.0
60 1 5.550923111286462 10.00658537778583 0.0 -0.042266691479278015 0.049198627922305546 0.0
61 2 2.9807819453734523 19.722150998803972 0.0 -0.045052676654203865 -0.05206069728072026 0.0
62 1 9.967822309482386 7.026453506245936 0.0 0.05102606832382849 0.07204373455055507 0.0
63 1 11.446035082358907 15.816443889680876 0.0 0.019416163755309704 -0.026221426314311673 0.0
64 2 13.320498254919288 17.25817742937349 0.0 -0.0834706074724885 0.05281276642529285 0.0
65 1 11.75201858094311 6.832434843653565 0.0 0.12427980704245668 0.017994114449374876 0.0
66 2 14.282196984309564 7.989065615117395 0.0 -0.008919937072205408 0.0938007746453179 0.0
67 1 3.5266622736870312 10.990472415023554 0.0 0.010099231613214773 -0.13628213910451367 0.0
68 2 15.383775252088899 2.8165226989819745 0.0 0.06668490901538844 0.05516043643109082 0.0
69 2 0.05118173196966552 8.730767919320572 0.0 -0.00386868508697074 0.018933808740643123 0.0
70 1 3.491051399757356 14.907231677860281 0.0 -0.040402944167766075 0.14769590410836428 0.0
71 1 18.615603156376714 13.76026009833067 0.0 0.14485791114269567 0.050802391722592634 0.0
72 1 12.09897836020502 8.966605586254182 0.0 0.006997972732289838 0.046242170971303426 0.0
73 1 12.579584936575607 9.507676599089613 0.0 -0.06683112228040877 0.009492612551527578 0.0
74 1 7.963088751707099 2.377080139361896 0.0 -0.031853081459090514 0.011572756938302169 0.0
75 2 16.377961889501147 18.683624565432787 0.0 0.05604054011796119 0.06259557298618892 0.0
76 1 5.624069050200829 11.317611770164595 0.0 0.041809422092381095 -0.058478449435197234 0.0
77 1 10.770459237747476 15.68999158615619 0.0 -0.05262978260365431 -0.04727522507773651 0.0
78 2 18.44767470796926 12.68930087415072 0.0 -0.0007663514350341086 -0.12759033489630334 0.0
79 1 0.3326101297033711 9.829577700859899 0.0 0.03361072498794205 -0.052364209357852416 0.0
80 2 6.0663321204559315 17.557463592602055 0.0 0.007853450624115845 0.0777022258070852 0.0
81 1 1.518523666967006 0.8350885295707334 0.0 -0.2285965903601215 0.06050559518507982 0.0
82 2 2.6630376570167584 5.544261889175398 0.0 0.030116408097422914 0.017652687877790934 0.0
83 1 4.1351236674535805 15.03867392681024 0.0 0.10649383321162113 -0.04013065677699956 0.0
84 2 19.300859528953406 0.46663485600279103 0.0 -0.019959382666441518 6.128118814205677e-5 0.0
85 1 5.32327393557922 13.500353015969193 0.0 -0.08282723317091097 0.11992910071454517 0.0
86 1 7.98740354175766 3.087526100013112 0.0 0.06274379995864175 -0.041002778334084417 0.0
87 1 15.740730581107655 11.892894595043561 0.0 0.03173748586898725 -0.04287622799086646 0.0
88 2 5.120273982746113 7.669457783372111 0.0 0.03779102653666676 -0.04928574586945357 0.0
89 1 5.074531970347344 17.135729747037576 0.0 0.07945436070392393 -0.0318858920378911 0.0
90 2 6.455438059807156 10.594346736701278 0.0 -0.04962217268235202 0.04007937004089863 0.0
91 2 7.740804348947109 8.77236065909354 0.0 -0.07571117854933714 -0.06659789745936665 0.0
92 1 2.102950003631433 8.577081520376554 0.0 0.012793046690817801 0.07613324257246325 0.0
93 1 9.931405742132585 6.343447085273106 0.0 -0.08955765113108195 -0.014603216535103202 0.0
94 1 11.157060261197747 18.955870215229588 0.0 0.13295978662834979 0.032515819319510135 0.0
95 2 5.04082686776889 18.246442585603464 0.0 0.07432813268199592 0.1127640163260848 0.0
96 2 17.885946569443448 16.00984846399287 0.0 0.009503496159622909 0.0050102788705017835 0.0
97 1 16.304637931097293 3.528229684386353 0.0 0.06857386571434396 -0.017763583954799902 0.0
98 2 14.133858534870859 4.498421002018906 0.0 0.010791004219613022 -0.037700800303300155 0.0
99 1 14.505630185391805 9.729377426426655 0.0 0.04032236561109178 -0.05822947690244786 0.0
100 1 14.892677559515118 10.982515632869834 0.0 -0.1886144039869199 0.016917171064988315 0.0
101 1 11.803575508422345 19.130915576739092 0.0 -0.040531880192056356 -0.05995275469929915 0.0
102 1 19.28776592046961 13.358933259076021 0.0 -0.005179998583199436 0.1179574184159532 0.0
103 1 12.456348766929313 2.7866126799258812 0.0 -0.03733808655090852 -0.19819255236692837 0.0
104 2 6.635267045649672 14.236517042173995 0.0 -0.006975774373757321 1.6644284114856958e-5 0.0
105 1 10.879617382047224 1.7912094762400845 0.0 -0.052992277835394244 -0.16970616168331978 0.0
106 1 11.930747293364938 9.635552492946857 0.0 -0.12673364533314624 0.10089286837545684 0.0
107 1 13.636542281606909 15.171000220584661 0.0 -0.12989362804039137 0.06702757189375948 0.0
108 2 1.8829309820051414 15.057298322251524 0.0 0.11153168271469473 0.011779108606264885 0.0
109 1 14.89906974092073 15.555121620405266 0.0 -0.003486222406427555 0.029354351067310505 0.0
110 2 3.7825222199976984 16.055259672724755 0.0 -0.04102866970923974 -0.07999424686179121 0.0
111 1 4.4076708160314615 6.749538322085891 0.0 -0.04811065103971659 -0.0689876571608542 0.0
112 1 2.4844013446881483 2.3520065303495947 0.0 -0.030274575671808024 0.03965090202934634 0.0
113 1 8.61501256886004 3.4053003533498263 0.0 -0.02780962418548834 0.09510767909612992 0.0
114 1 3.328891741683304 11.625783911078937 0.0 -0.05075037049346764 -0.0011798612120700503 0.0
115 1 7.774615957563195 13.041641597414399 0.0 0.10387743468413396 0.0943633827943888 0.0
116 2 7.386840878549187 11.467435799171206 0.0 -0.024567809995599738 -0.06401428527269466 0.0
117 2 15.686058870683878 14.187926793657793 0.0 -0.01428900670938394 -0.05808891671413466 0.0
118 1 0.20795276526832468 13.416766087703953 0.0 -0.07138659986909893 -0.003912271352415518 0.0
119 1 17.46318577550128 18.64860065126459 0.0 -0.015834324618448022 -0.12252056353700722 0.0
120 2 17.48868253415568 8.714303953470905 0.0 0.041878272853307946 -0.03312048683250589 0.0
121 2 12.824034999234419 13.93400460980071 0.0 -0.03246544942268434 0.05404045656973192 0.0
122 1 7.624881503370828 13.691447690271255 0.0 -0.027673871516539637 0.03367184230539547 0.0
123 2 1.2126184409850502 9.152931556500072 0.0 0.025267568082267426 0.031448197181732154 0.0
124 2 14.505616170418483 1.7410227681296406 0.0 -0.0054064993202519885 0.038607211742830626 0.0
125 2 3.679306671128199 13.821803023107325 0.0 0.0012787170917107971 0.03453915362122354 0.0
126 2 15.723142332513943 1.5901822102002183 0.0 0.001748054290232602 -0.009522202356464744 0.0
127 2 15.128230924514842 18.83257410793998 0.0 -0.016154361535165078 0.10278517330149056 0.0
128 2 13.983620217972188 19.499554720569087 0.0 -0.0017427820627248264 0.050596432208606865 0.0
129 2 5.648764328799242 2.3188755767441087 0.0 -0.07574731556138203 -0.045233543606732186 0.0
130 1 11.618142855619064 18.48824398342553 0.0 -0.0923227346906757 0.033740596147489955 0.0
131 1 11.169200130458941 1.1941432231308207 0.0 -0.05426656827031884 -0.06693931844289396 0.0
132 1 13.89664920850688 9.454482743674257 0.0 0.013165724965416549 0.15369401139538347 0.0
133 2 0.6343078380381951 15.346865632978037 0.0 0.016608919970929302 0.06016268637195207 0.0
134 2 13.554730643588636 5.592943122185785 0.0 0.03696515966976926 0.08881955778027997 0.0
135 2 1.6605493132635856 17.600852932330294 0.0 0.12965641976231618 0.033540487563743886 0.0
136 1 14.769293082817894 12.794864382834394 0.0 -0.04138919870106014 -0.057489390511816736 0.0
137 2 10.993117545513671 7.636138652403654 0.0 0.048083127343907954 0.04580092000791359 0.0
138 1 17.92046926857551 9.702015497242469 0.0 0.0089024954159991 0.10008541367777184 0.0
139 1 10.503396096655162 1.2400499809498204 0.0 0.048020394393589155 -0.10055813135334243 0.0
140 2 9.96804427535719 10.20625429895259 0.0 0.00790021896711252 -0.06802877892815615 0.0
141 2 16.464712374223332 6.481517765449217 0.0 -0.015085685263698495 -0.018621365453490652 0.0
142 2 9.713725913081802 15.391968958530347 0.0 0.09437533443125966 -0.04878706439310675 0.0
143 1 10.978074662300008 19.60044387040148 0.0 0.1401764499342527 0.1957796154096032 0.0
144 1 4.498375125918297 14.504412010820575 0.0 -0.0026959963552149213 -0.08890422186546376 0.0
145 1 19.438343843552666 9.984010814389498 0.0 0.2001823361294533 -0.03558359898250616 0.0
146 2 16.313983193743194 5.211688410810502 0.0 -0.10043957319195726 -0.025367204790547306 0.0
147 2 18.791148447798054 3.0074014949705044 0.0 -0.010835962547679772 -0.03903207058067132 0.0
148 2 10.816283248511802 2.869380872119193 0.0 -0.00960378161672863 -0.07908286687566148 0.0
149 2 6.505779515199403 9.323577640660597 0.0 0.004455798224395574 0.01120001232249964 0.0
150 2 9.37850387084531 14.07690716591595 0.0 -0.0328974056932657 0.004728179424599227 0.0
151 2 1.8194327382672133 4.653076040383116 0.0 0.007392096958104722 -0.06838339044518998 0.0
152 1 1.1631901159783482 7.4060657116110535 0.0 0.09664085937776021 -0.018682092951232007 0.0
153 2 6.540255254945276 1.3916595806832002 0.0 0.06432898145442649 0.06315319215697392 0.0
154 2 1.6298510787613838 16.290515361011753 0.0 -0.0427983452442586 0.047130639053191994 0.0
155 1 17.736273628994315 11.85974259194256 0.0 0.14420471929906392 0.05639975987768348 0.0
156 1 14.88971864722379 14.893068823325102 0.0 0.07543655939034434 0.07748579594883055 0.0
157 2 17.846221735556828 2.1740090195147905 0.0 -0.03875268643951147 -0.08148524582589158 0.0
158 2 9.538692062411755 18.68313677606814 0.0 0.061385454845332636 -0.06559088125163533 0.0
159 1 8.48942404260804 13.303247592966777 0.0 -0.10976093429724881 0.0975234295194906 0.0
160 1 1.5898512759085932 8.094977305201137 0.0 0.05244247470447192 -0.033125198274488316 0.0
161 2 4.485440028326508 2.8019591014048717 0.0 -0.058710115345308386 0.05320418479356774 0.0
162 1 11.180691098571005 6.51558758133348 0.0 -0.015551951758889402 0.11530544216752772 0.0
163 2 18.11929534438462 14.765391122052657 0.0 -0.004279518049941912 0.01986927002657657 0.0
164 1 16.678705115752216 9.5053102390898 0.0 -0.12168042434023182 -0.056623905668242235 0.0
165 2 18.4091967394278 5.676954525676709 0.0 0.014004177075036052 -0.01387410432505391 0.0
166 1 16.545824944600366 8.173728236924656 0.0 -0.013662291405987985 -0.05954944629793884 0.0
167 2 7.390000391873528 6.636923622652862 0.0 0.09577292769272036 -0.02571161346936239 0.0
168 1 0.9365126550601228 8.062332227095212 0.0 -0.05530773767943221 -0.02090329189342161 0.0
169 1 12.840144393184676 16.257131151984158 0.0 0.16725304097347415 -0.06637911559670431 0.0
170 1 15.442708666298689 10.597440670708858 0.0 -0.1276521657083525 0.027244943492157857 0.0
171 1 5.414203286055614 15.384042974829551 0.0 0.010469532882722041 -0.08362323945061896 0.0
172 1 5.065352439913873 15.965148710427913 0.0 0.06641047968327797 0.010535798290478491 0.0
173 2 8.816896912520093 9.644399099183111 0.0 -0.07921737744664006 0.0166532696341128 0.0
174 1 13.219487400183015 9.699139397004398 0.0 -0.00313574590543005 0.03317605286614451 0.0
175 2 8.600048441895831 4.499327104974312 0.0 -0.045327088311570875 -0.12854788976710457 0.0
176 2 15.403068467715999 4.186297010644194 0.0 0.011230650411884152 0.03398112290474853 0.0
177 1 12.64800475862575 7.688890956264367 0.0 -0.08440751359539932 -0.0022560095720884393 0.0
178 1 9.921888654095609 7.716684482319498 0.0 -0.1320029953747879 -0.02276618875971423 0.0
179 2 18.649919824155837 8.19710371730704 0.0 -0.012109267944204798 0.040177622432737065 0.0
180 2 7.181027504487968 17.98241777715597 0.0 0.04433635450790132 0.019471749026974648 0.0
181 1 11.261494411523218 12.567303445326493 0.0 -0.045889267681937324 0.013452611507461 0.0
182 2 16.621711066918692 2.478996595269605 0.0 -0.015134222310278502 -0.056964192436387624 0.0
183 1 9.355025054606074 7.352672349243403 0.0 0.16689573659519455 0.10834460200687113 0.0
184 1 5.473687270796625 14.168244802545907 0.0 -0.061302705446597515 -0.06273120481574926 0.0
185 1 17.937107140552655 13.663925619064125 0.0 0.12249768540694243 0.025498231072611826 0.0
186 1 6.896788070276255 15.399235777427172 0.0 -0.0517596073444265 0.0266714461167666 0.0
187 1 11.841278230639167 5.412142219110844 0.0 -0.03823627817395801 0.06998530631128504 0.0
188 1 1.900102922296245 0.2769142742835594 0.0 0.008740681083559106 0.1000806862750985 0.0
189 2 11.261347525368041 16.883471592741763 0.0 0.012259978942591506 -0.03729383404267255 0.0
190 1 6.342367602727959 19.41018242177276 0.0 0.058634987143810186 0.04054346808912814 0.0
191 2 2.2951179177068304 13.666511438593993 0.0 0.035642889675843635 0.048739983423455 0.0
192 2 7.633606944937296 10.136960506398266 0.0 -0.055974423258080386 -0.008722385406092777 0.0
193 1 12.048626171140253 7.444249528600827 0.0 -0.037513041423948214 -0.2636809706756307 0.0
194 1 6.242672275504559 4.46902550426483 0.0 0.08210944511922619 -0.07763190322044874 0.0
195 2 13.496437444872052 0.9214292541077189 0.0 0.0254922560015752 0.034383602773804846 0.0
196 1 5.750962453551626 14.816763896634232 0.0 -0.10854031596610643 0.040948253186061934 0.0
197 1 5.971903394601562 13.379574719743925 0.0 0.025704618467661606 -0.007870802067459232 0.0
198 2 11.807809147232826 3.677664603202528 0.0 0.062178227625381124 -0.021094475223310035 0.0
199 2 6.920609383400799 2.795597112954214 0.0 0.07962786085097878 0.004319766551712942 0.0
200 1 10.322646724024379 4.4717935882779996 0.0 -0.13666919647585762 -0.005536748457366424 0.0
201 2 17.17427120757753 12.810034768515022 0.0 0.01818115682288935 0.0037185539269437174 0.0
202 2 2.5947274673110283 7.626547563054905 0.0 0.0565976260646587 0.06877582796155104 0.0
203 2 6.3896435722231 5.542061150133957 0.0 0.08208568044190337 -0.06355871012510687 0.0
204 1 4.929472379612884 4.671689181502868 0.0 0.01582165249770999 -0.015448166718704396 0.0
205 2 18.1250066117459 0.9152306152881146 0.0 -0.06923221190411037 0.026762363177093858 0.0
206 1 9.710996617075427 16.47947025905034 0.0 -0.024853649646818382 -0.0251153480967176 0.0
207 1 4.7180459181167835 15.364006192223284 0.0 -0.021335111125377056 -0.03685824313953103 0.0
208 2 6.285976016790624 7.217828171611507 0.0 0.04557133105159524 0.005469896990736728 0.0
209 1 10.72016845426985 3.9227376632560063 0.0 -0.0594668675842637 0.07931106517034812 0.0
210 1 5.754606862889533 4.001699020815572 0.0 -0.10149827000143659 0.013011635611124948 0.0
211 1 5.2988272179451235 5.2483919832021835 0.0 -0.03119491567728055 0.08397757143173289 0.0
212 1 11.12769937952688 0.5204650080535155 0.0 -0.035998298947642414 -0.021897560406161577 0.0
213 2 0.1982649503243154 10.957151036920774 0.0 0.07014936397533739 -0.04110630822091789 0.0
214 1 17.078814353225585 11.658275994520656 0.0 -0.12966454398234376 -0.0020736831972686504 0.0
215 1 14.9947334534284 17.71656580782028 0.0 0.033518533602175084 -0.09509122393047076 0.0
216 1 2.955290212247374 15.296507837343947 0.0 -0.09972018362990907 -0.1338881288627954 0.0
217 1 3.983014501668777 10.50438905195643 0.0 -0.11389287696490215 -0.09868450628176309 0.0
218 1 9.501011504489068 12.42949597985065 0.0 -0.06088025968829433 -0.07168276145516661 0.0
219 1 4.806954361566499 13.919760131481274 0.0 -0.06376780073592936 0.07786816807086089 0.0
220 1 10.757000325265288 12.089510286919056 0.0 -0.040424734914163755 -0.034287826091630544 0.0
221 2 3.8262732635369985 12.591280953446427 0.0 -0.02458530488517218 -0.07887267910085644 0.0
222 2 11.521682656945577 13.626105544622838 0.0 0.04157206705903473 -0.07094888988376404 0.0
223 1 17.074309017739996 15.25757929971868 0.0 -0.0718207529638742 -0.051843222623604975 0.0
224 1 8.080458392569886 17.338390215407642 0.0 0.005668306873009898 0.07547278982239206 0.0
225 1 5.785549231542492 15.923162271375215 0.0 -0.02314578754467392 0.02965739872355334 0.0
226 1 14.319363202435568 15.221368199343848 0.0 -0.13897430117660894 -0.05037392793909158 0.0
227 1 17.259736905252765 9.818989345200313 0.0 -0.0766970854593671 -0.03196413774780626 0.0
228 1 18.410850802116542 9.254478321833574 0.0 -0.014143134643311768 0.024645242732942458 0.0
229 2 13.804497744489757 10.59707595975552 0.0 0.034450404041815846 0.006126655251686381 0.0
230 1 15.887686084972682 19.65817927386207 0.0 -0.0013541885363921459 0.0885046175695419 0.0
231 1 4.123450138721938 3.8225562658219574 0.0 -0.153022147352137 0.1513500018902969 0.0
232 2 15.452309142662168 8.300976990128598 0.0 -0.012366346078616612 -0.01941597131331288 0.0
233 2 12.707249284011361 18.503954289288963 0.0 0.01294940822860294 -0.06584052273243683 0.0
234 1 4.277383311885626 4.4810530442849235 0.0 0.04791028544459796 0.18780990225232522 0.0
235 1 18.555816665146395 9.929452193017617 0.0 -0.16937940749636266 0.028826675069759566 0.0
236 1 6.474718235900901 15.916124213400286 0.0 0.04053314564290142 -0.18229923539883833 0.0
237 2 14.9429275898571 5.626619352832332 0.0 0.01229733628988067 -0.007519538882191091 0.0
238 2 19.45046662051995 18.987802069995414 0.0 0.035790402291479 0.014880977088920506 0.0
239 1 16.572644880848003 4.138130911279726 0.0 0.08203574494202809 -0.07994537812087521 0.0
240 1 9.147916953656953 13.003465636195445 0.0 -0.013680832149502904 0.025949489233837796 0.0
241 1 0.8535106696063632 6.7547226681884425 0.0 -0.1296792106975129 -0.05947584328412031 0.0
242 2 16.083917355266827 17.512613040162005 0.0 -0.030647984626111298 -0.13488695664331962 0.0
243 1 15.05542238739939 11.618201004320566 0.0 -0.18038135395788063 0.062116629142852015 0.0
244 2 1.3034439027248903 10.382568191462548 0.0 0.0351010617001344 -0.06595718871751498 0.0
245 2 13.180170893706748 8.621826794064667 0.0 -0.08861069640411909 -0.009086716145150539 0.0
246 2 14.072436505498525 14.150282234007895 0.0 -0.05721764659462516 0.05598868809930786 0.0
247 1 8.913812022387768 16.238001420281122 0.0 -0.01470283188109366 -0.028537048152744215 0.0
248 2 8.351281967318178 18.388130686694662 0.0 0.10067401321302522 0.03517992799946189 0.0
249 2 12.529921122561282 10.597198558628449 0.0 -0.1213343064218918 -0.023592386526260545 0.0
250 2 12.734449554803703 4.568059391625781 0.0 -0.0020966371094045108 0.005632596796130335 0.0
251 1 6.694612757955791 0.2740324444633389 0.0 0.013425816357293906 0.028690284057670535 0.0
252 2 0.4849146647317825 1.2542661492518083 0.0 -0.037731126609611476 0.08924172481903744 0.0
253 1 6.617897473866295 12.270917932899517 0.0 -0.0807617687276738 0.05341840223265612 0.0
254 1 11.528039899423346 8.609134113277788 0.0 -0.036851835877308024 0.033952209319896356 0.0
255 1 11.755785532674944 17.853368867552675 0.0 -0.03317619844727352 0.029418880994955085 0.0
256 2 2.5684629867544797 1.1752034817796169 0.0 0.026474582463607794 0.006141995769031048 0.0
257 1 12.959765762100753 15.048007434021148 0.0 0.0905375143323709 -0.06589441369507161 0.0
258 2 18.721181828095947 16.91112319313286 0.0 0.010602907880182767 -0.06180939007630469 0.0
259 2 19.13381255317746 15.679175757246046 0.0 0.021545766305694932 -0.014890522801537982 0.0
260 2 7.693494618889096 0.737891725593631 0.0 0.07889976810341769 0.00596608284832748 0.0
261 2 1.2936298786053808 11.665412063010738 0.0 -0.03600649632750717 -0.020314375904240137 0.0
262 1 18.947519637010696 10.460758289476383 0.0 0.15265515181929984 -0.03242954118937908 0.0
263 2 17.03252988094583 19.74823872289486 0.0 0.03799034343830765 -0.12339471133864993 0.0
264 2 10.376088083616445 8.760658563513132 0.0 0.05358801319797663 8.655025747347713e-5 0.0
265 1 16.435769053249512 11.92197003077347 0.0 0.03216593165874767 -0.098861550993539 0.0
266 2 9.798257252755718 2.082340010956164 0.0 0.018382761958108135 1.9430974230172408e-5 0.0
267 2 8.672806945689494 19.630561604866177 0.0 -0.06266833058486264 -0.003479486613399442 0.0
268 1 16.077610961393436 0.5365729917148225 0.0 0.03882182306451638 0.022312262140389272 0.0
269 2 4.024650073951053 17.422474685533448 0.0 -0.0405435717086626 -0.04582935565172187 0.0
270 2 12.219547653967236 0.9384609328732741 0.0 -0.03915760432651203 -0.004660031736745737 0.0
271 2 8.282371886816247 7.534070343844386 0.0 0.0021906574351306077 0.035163672177389804 0.0
272 1 7.1091208820436265 3.8778208388483546 0.0 -0.11174690370248969 -0.1494588694401626 0.0
273 2 2.9891873534114755 18.220784087324574 0.0 0.02547886049943712 -0.03235089113778739 0.0
274 2 17.42004900596534 17.48411226466646 0.0 -0.035216510187139206 -0.028164125982570634 0.0
275 1 9.939192811325285 11.304798464572924 0.0 -0.09129616810263458 0.04948608903958627 0.0
276 1 6.187214244093196 15.32346298275208 0.0 -0.05125926568780895 -0.0243446004716143 0.0
277 1 11.355988889093213 9.277514046665354 0.0 0.06310325723992699 -0.06152054740189898 0.0
278 2 11.734723213321942 11.587170183770976 0.0 -0.02824093046429107 -0.004715653413782999 0.0
279 1 1.894959924592938 2.045905486307095 0.0 0.05535380269924589 -0.00024615656496988634 0.0
280 2 12.790509309588748 6.606168711332963 0.0 -0.005477456456927325 -0.11638443654731277 0.0
281 2 9.544253978006703 5.316665417179647 0.0 -0.010473016859344465 -0.040871413400521604 0.0
282 1 7.552130040648673 15.637988568042385 0.0 0.10194248583643908 0.08785986671250469 0.0
283 2 4.52075780861857 11.50605987163441 0.0 0.03203492030401317 -0.03541046265183431 0.0
284 2 3.5395097971062963 1.9658627012871865 0.0 0.09759639993552992 -0.06008559317156016 0.0
285 2 0.8253205621155114 18.524775667323443 0.0 0.07906332301851474 -0.0467718601984981 0.0
286 2 18.466809885135355 18.18056157377584 0.0 -0.07244272307411467 -0.004726722644794885 0.0
287 1 17.56669493028396 6.388594215975726 0.0 0.05853753103830989 -0.001077292679481218 0.0
288 1 4.677477038378135 10.43344096922766 0.0 -0.014335904628172582 0.0673282816402694 0.0
289 1 2.88036997457254 14.60454291549418 0.0 -0.033865896923495016 0.10779764616502513 0.0
290 1 11.042820822514035 4.490492373144955 0.0 0.033654802034215926 -0.10111420550581271 0.0
291 1 2.6531958461714957 15.881007247086417 0.0 -0.15257204421291046 0.0033085859813118145 0.0
292 2 16.53315154576806 10.675115500884024 0.0 0.08488447337879873 -0.01678398774945731 0.0
293 1 4.689951507101513 13.258147302067862 0.0 0.07228118898971563 0.09462434854201242 0.0
294 1 13.183931211571094 15.672649069876806 0.0 0.05367179477382122 -0.10554642199984447 0.0
295 1 1.2208531421916522 2.0828558163150386 0.0 0.015126021665817516 -0.16415368942135827 0.0
296 1 9.152485340146914 2.9749385433667204 0.0 -0.030612072613275258 0.12888371073392335 0.0
297 1 3.6212489929438245 0.8828508097999268 0.0 -0.02510752078486824 -0.06890676331325438 0.0
298 1 14.394552830490465 11.492848983932644 0.0 -0.12775997164458192 0.1240407723716154 0.0
299 2 8.539323064697195 15.075247020307991 0.0 -0.09719061997645435 -0.02614005575137864 0.0
300 2 0.35383001800877495 16.577603539502647 0.0 -0.01430828065839744 -0.07259741430145976 0.0
301 2 9.185710731209069 17.424316561074892 0.0 0.013721046218412266 0.06441987170260213 0.0
302 2 1.0391560297696667 14.14542458989796 0.0 -0.009392712549795663 0.03692973998135208 0.0
303 2 2.3985212501906403 9.696295779104084 0.0 0.039658935951474225 0.07194840599573044 0.0
304 2 11.856388031816602 14.812246981910688 0.0 -0.015772516989230594 0.014344674492473588 0.0
305 2 10.74965871339486 5.5305895233953555 0.0 -0.007278254855343601 0.01093576879021876 0.0
306 2 14.978993424975663 0.5300396034614298 0.0 0.06607046413345864 -0.061282863349377416 0.0
307 2 7.4067032319003925 19.221619540804642 0.0 0.08090364747932405 -0.011308742768343778 0.0
308 1 6.129005683189753 16.489978300627172 0.0 0.014049664518939292 0.008509162670347849 0.0
309 2 17.55687913116819 4.703117585333377 0.0 0.0009933369414256198 0.01519344171655942 0.0
310 1 11.620708581052352 0.02054541829128221 0.0 0.019720386880059164 0.15302382036470524 0.0
311 2 3.1873226749564565 8.738592753760285 0.0 0.010819886204646061 -0.0005597649130522794 0.0
312 1 14.486887260510821 17.28771576048589 0.0 -0.07727878049322198 0.009954554688057893 0.0
313 1 19.297261306374793 5.027585468574752 0.0 -0.012743397493339302 0.06822032076487188 0.0
314 2 15.594801591770741 9.532528356510147 0.0 -0.03904966851995327 0.051164766319557256 0.0
315 2 1.228688465932815 12.909664910670054 0.0 0.012813900400836353 0.08478324894211191 0.0
316 1 5.307155513145243 3.4897732776698476 0.0 0.0735963928185559 -0.07592125968494132 0.0
317 2 16.946610850111504 14.15396550523767 0.0 0.025584304277896645 -0.02874420774743988 0.0
318 2 13.344022976468947 2.1666254041609623 0.0 0.02165034764894 -0.0007638729608781104 0.0
319 1 12.07834981257218 8.14983866341856 0.0 -0.14515371352374673 0.038029721696427536 0.0
320 2 9.109759756289929 8.445453893648498 0.0 0.13578822834376184 0.07608329053221173 0.0
321 1 14.89232389647041 13.442719651413219 0.0 0.04092626648526725 -0.10695236384875559 0.0
322 1 4.786876906498276 3.978338773236636 0.0 0.06483531906028299 -0.028809024658031472 0.0
323 1 15.136933191673856 12.259744599668375 0.0 -0.056280450979617605 -0.1048929728430331 0.0