ITEM: TIMESTEP
0
ITEM: NUMBER OF ATOMS
400
ITEM: BOX BOUNDS xy xz yz pp pp pp
0.0 19.7609 0.0
0.0 19.7609 0.0
0.0 10.0 0.0
ITEM: ATOMS id type x y z vx vy vz
1 1 14.995263912828438 18.5392147362144 0.0 0.07761009771556238 -0.04204524901645256 0.0
2 2 10.617411710787756 15.416009867034285 0.0 0.05503971425594945 -0.013667320431530192 0.0
3 1 17.169989025234273 11.53023652845071 0.0 -0.03356876479273563 0.12744844923061524 0.0
4 1 17.384047409524158 16.48978652398629 0.0 -0.011088225915982073 -0.04610220599230778 0.0
5 1 1.0686034094880754 5.117604695498912 0.0 0.0284627098751166 0.1299031026566807 0.0
6 2 18.23997383952535 17.255157715847382 0.0 0.05357647958131375 0.021149087648380874 0.0
7 2 5.908072248081589 0.31050831713383625 0.0 0.04184076354244037 0.0005697660933918951 0.0
8 1 17.526703662018726 6.2319210372066856 0.0 -0.05402925176856207 0.04075874816888227 0.0
9 2 12.60775825018178 18.481389118316933 0.0 0.05338236334799489 0.021621334332695724 0.0
10 1 10.946590030915983 19.086622653929915 0.0 0.06134870977468814 -0.038965916612695134 0.0
11 2 2.4161744461417736 1.9423374303368148 0.0 -0.020626748358686317 -0.09670692612511253 0.0
12 1 18.004337692663892 2.217041488310329 0.0 0.0801011241126579 0.07924575520708108 0.0
13 2 13.90450836256115 18.558383204918815 0.0 0.04025110941068601 -0.08209828716114946 0.0
14 2 10.16110252472118 0.7922046913075679 0.0 0.1062488231495056 -0.01191629654829238 0.0
15 2 8.815398112351957 11.625031072760082 0.0 -0.11479797406478702 0.022008615283848138 0.0
16 1 1.9866639997199869 17.149514162138747 0.0 0.040067540116674176 -0.038779974401942814 0.0
17 1 5.108995559722501 6.520391574671067 0.0 -0.12227541612440199 -0.08207764537579817 0.0
18 2 18.96234040392187 12.492924445153212 0.0 0.024268322142362856 0.016934196166873 0.0
19 1 19.268304069934235 16.800553148293236 0.0 0.06833131047986891 0.14036660060138295 0.0
20 1 6.022684972453764 9.691978190906331 0.0 0.010312268899374064 0.04046314548435144 0.0
21 1 19.297302494765617 15.97463998118687 0.0 0.06295707249895358 -0.04078006861292923 0.0
22 2 3.99002821833148 10.46843276897129 0.0 -0.061516700186690795 -0.15508919055191 0.0
23 1 17.088552159025816 10.365249266510048 0.0 -0.028276253255234696 -0.008300946490999331 0.0
24 1 6.530477535290655 13.699834513075876 0.0 0.02225954512899939 0.0865316401625097 0.0
25 1 18.72476802477345 16.287490295437774 0.0 -0.019387308035869823 0.004662854766453055 0.0
26 1 18.266248636197908 13.390346240743938 0.0 0.029818586535432803 -0.012573872418692497 0.0
27 1 8.786065457793805 3.8216187700260815 0.0 -0.005314876111014522 -0.019591063254872504 0.0
28 1 17.467228181370764 10.920363991044042 0.0 0.033334717110046666 0.004615199485577276 0.0
29 2 12.566568883480949 14.065762931590248 0.0 0.06760885878144303 0.026656135833303733 0.0
30 1 14.129838654670634 17.47173685382318 0.0 0.07085009964493716 0.059998183670316986 0.0
31 1 7.090750010832677 14.039997088152095 0.0 -0.05916632234211018 -0.13131088042866385 0.0
32 2 9.253517236659949 0.004265876834779076 0.0 -0.06774064116512392 -0.038600298020718966 0.0
33 1 18.11712874020825 0.009620149477817827 0.0 -0.0343663533643098 0.08172496335821076 0.0
34 1 17.61680601020795 2.7543351683693698 0.0 -0.06252649592405388 0.015330096087397573 0.0
35 1 14.289682859283195 2.5046132674310146 0.0 -0.07236979317337436 0.011664989282700676 0.0
36 2 19.281719598723914 10.706633689728745 0.0 0.03450614261343646 0.013647136100420945 0.0
37 1 7.114939768668557 18.840041359998498 0.0 0.030549806462144946 0.00825855291282507 0.0
38 2 19.688611792498886 2.319336989658699 0.0 -0.033505008665742804 -0.0421827373157098 0.0
39 2 14.561349804376032 14.895283374427425 0.0 -0.009741732020315249 0.035299092410984806 0.0
40 1 11.155177901890843 12.046140146569234 0.0 0.009749172616161693 -0.17763560123802388 0.0
41 2 1.9551276642854318 4.4646512331359824 0.0 0.02889127754948488 -0.015320493950726832 0.0
42 1 14.885921700018221 2.7724358154901476 0.0 0.06404874528175053 -0.09403908179411036 0.0
43 1 9.181060963330333 13.680125855519098 0.0 -0.029065096559699136 -0.07050529269728367 0.0
44 2 5.6164818973262065 13.127522812400576 0.0 -0.14358628466526535 -0.024943828332019025 0.0
45 1 18.63188765704523 1.9256105730204722 0.0 -0.0723327471870043 0.011571089292284167 0.0
46 1 1.3721365462478206 15.052582167666053 0.0 0.05308685497734022 0.0203113027586558 0.0
47 2 14.210513361922038 4.762326476572247 0.0 -0.004074142471954428 0.04323217049708947 0.0
48 2 13.608646782703412 7.142652624660615 0.0 -0.04719352597829114 0.06294611918134806 0.0
49 1 14.745597116672373 17.837860117170802 0.0 0.10240756044636737 0.08510151226621351 0.0
50 2 9.542159872545007 12.620966507593067 0.0 -0.07171846816202836 0.06684034091046068 0.0
51 1 13.058363863964248 10.524166251290252 0.0 -0.13152790217471338 -0.12435283373196498 0.0
52 2 15.735561526923005 8.170679390651744 0.0 -0.07019578107806265 0.03892776994393692 0.0
53 2 8.021445829664666 4.614534243050641 0.0 -0.03536029756279959 -0.022258049980153287 0.0
54 1 1.322009942994087 17.095514678161088 0.0 -0.0029143589463375857 0.012135190774746809 0.0
55 1 12.787596929735567 11.145886264858788 0.0 0.13118843702145758 -0.01261194506963579 0.0
56 1 15.829050566308032 1.5275598436375133 0.0 0.022741166618856352 0.1287920476819871 0.0
57 1 15.933961265072075 2.2370962318885805 0.0 0.06719294405634067 0.08496447374989487 0.0
58 2 13.266315962365207 2.209366562871195 0.0 -0.03326528024392378 -0.01919763360760027 0.0
59 2 18.443886034985805 4.331080076028744 0.0 -0.022798055025983918 -0.053093100893046245 0.0
60 1 14.323163209842864 8.863668256924742 0.0 0.04024909368973034 0.0574105249052686 0.0
61 2 1.3275385062519756 6.789585261297584 0.0 0.0319286210943823 0.030748785149890562 0.0
62 1 9.824105761971426 2.3589878633725143 0.0 0.05113404173839354 -0.09186397432287847 0.0
63 1 7.461323385073796 7.531552627234797 0.0 -0.042367446077549824 -0.03636465832229345 0.0
64 2 7.4601520031806166 5.749281774491778 0.0 -0.028315403895198068 -0.04069193150173209 0.0
65 1 5.197241726443541 16.119656636879416 0.0 0.1161633802554114 0.2006330512015883 0.0
66 2 17.359824443632238 15.352833293061094 0.0 0.03312520937394863 0.04740466062116569 0.0
67 1 8.40961347965684 12.6223723236455 0.0 -0.1408123662641249 -0.14841131367328214 0.0
68 2 13.024716390560863 17.311002450102944 0.0 -0.05370524303297694 -0.031684805909403826 0.0
69 2 7.593361018279359 2.1612712686083593 0.0 0.068087827227088 -0.00489007419714525 0.0
70 1 9.750942685248164 3.031337706294537 0.0 0.04338545459109518 -0.008293697491635603 0.0
71 1 13.526105043942064 13.528886497867768 0.0 0.06979040649323331 -0.02169604367047562 0.0
72 1 5.527615619903382 7.078369573427477 0.0 -0.040545790324259305 3.798859148955084e-5 0.0
73 1 13.905632586078077 9.457522748640471 0.0 0.012112945805407865 0.10525271772338234 0.0
74 1 6.9392538567595246 16.157268780792368 0.0 0.11726628051057197 0.05676855997704951 0.0
75 2 15.095996812240692 16.148394511927712 0.0 0.02897838371530559 0.003982866619380328 0.0
76 1 3.6872199055205277 14.411031119671293 0.0 -0.009265325498476397 -0.019393611362677067 0.0
77 1 17.998721043378534 6.709550544000219 0.0 0.03535060717081454 -0.019792755242915547 0.0
78 2 11.533338285659447 0.9266729845453989 0.0 0.040287170823563354 0.008639680892403174 0.0
79 1 17.838636033408655 7.344095177493265 0.0 -0.008882971633483285 0.004817043278057343 0.0
80 2 16.991624634645685 8.040697799598194 0.0 -0.05521215040657149 0.029622196811325156 0.0
81 1 4.26410639710954 14.791522666766946 0.0 0.005670982015040809 -0.011696560260559836 0.0
82 2 14.596040428700002 13.549229386586878 0.0 0.011822905225621783 -0.019124194085839208 0.0
83 1 15.015542318522785 8.974875533526896 0.0 0.12517679830540052 -0.01925302559969561 0.0
84 2 10.32167029534704 13.605131551134594 0.0 -0.12647421704231107 0.08231617783933519 0.0
85 1 5.7248053438994395 9.066653085808767 0.0 -0.043232364223709886 -0.13172544178470705 0.0
86 1 6.762939373970923 6.582536649675862 0.0 0.10791831879366882 -0.04691501389778839 0.0
87 1 10.361599050390119 19.465127721560737 0.0 -0.045351097283302014 0.1199358146083359 0.0
88 2 14.383944099469115 6.023090302443224 0.0 -0.04743206040238352 0.06916679297792461 0.0
89 1 9.553659994377263 1.7235441096621158 0.0 0.007911750161492889 0.1527229637135756 0.0
90 2 16.23421772832201 12.120842383420927 0.0 0.02175939916878181 0.04413005448125615 0.0
91 2 12.321547748773154 7.001940033233531 0.0 0.04344419053330778 -0.0028231602975015797 0.0
92 1 1.6547260463098585 19.278525622716224 0.0 0.03263307151531544 -0.04313407092597163 0.0
93 1 0.8999230627853952 5.763184293722628 0.0 -0.03518523948415152 0.12572519335682825 0.0
94 1 16.787613554466933 10.988392375261173 0.0 0.04356848191019313 -0.008687393693710185 0.0
95 2 17.48403129448505 5.124463031767355 0.0 -0.0017440071623519087 0.06767542533520408 0.0
96 2 6.599435346599775 4.8553461664933 0.0 -0.069989402399068 -0.05029093101712543 0.0
97 1 6.193196193936004 15.119398439577132 0.0 -0.009105144355153782 -0.0516567045053631 0.0
98 2 6.776836862870006 1.2922489677859619 0.0 0.023195901511165223 0.04204393929781125 0.0
99 1 1.6556401730942187 14.447828553617889 0.0 0.04530381695932962 -0.1450733705085517 0.0
100 1 1.1521447037621053 19.748783807384257 0.0 0.043325087305967236 -0.07483461599512012 0.0
101 1 8.660456184825671 13.239024860606992 0.0 -0.06142365575128755 0.06048070279937638 0.0
102 1 13.673538190117071 8.801663514729716 0.0 -0.0595910918201044 -0.055763732930142855 0.0
103 1 15.38724575709188 18.017186675226586 0.0 0.0381797789921219 -0.025054601381436132 0.0
104 2 10.705658904103505 5.0971531871327125 0.0 -0.0181375312824234 -0.009545238215260403 0.0
105 1 8.379612544109852 10.643843592081128 0.0 -0.08736175751093078 -0.15659380209025373 0.0
106 1 7.494527704282782 18.288875097918446 0.0 -0.0356093863092695 -0.032054624167866336 0.0
107 1 12.272288645478026 15.792560083193898 0.0 0.05807107009622259 0.05345337496112904 0.0
108 2 18.696097267406937 3.0531649208745844 0.0 0.07048504241464397 0.07295579162246572 0.0
109 1 11.192055285816217 11.339331542544443 0.0 0.06858375024069284 -0.061855031643913386 0.0
110 2 15.396443195604277 5.1437063370184175 0.0 0.0037060201042642647 -0.005742328245892401 0.0
111 1 4.937298990111529 16.749810028041523 0.0 0.2052971655133566 -0.032149735158989536 0.0
112 1 14.655188923327682 8.286772857039931 0.0 -0.11651284400782191 0.09354105138246575 0.0
113 1 2.4074402890732567 11.595347275687008 0.0 -0.13083059903140992 0.028647554161073285 0.0
114 1 6.938736837691597 8.743419548068989 0.0 0.09478969241267388 0.012428855285921301 0.0
115 1 13.094410323283409 11.76616176419978 0.0 -0.04284898321344155 0.1206671835161157 0.0
116 2 0.17516555137253026 18.414104858435444 0.0 -0.043189772277287326 0.044638870324633415 0.0
117 2 8.470296846204443 8.170130203884252 0.0 0.0665544036765484 -0.02488865370111778 0.0
118 1 17.68299189869678 3.4201470364618585 0.0 -0.027869012480056122 -0.17806792904455904 0.0
119 1 11.64742783710093 16.11590200448779 0.0 -0.02386583776170708 -0.09208249311897293 0.0
120 2 18.33406225448214 14.532813157792171 0.0 0.07450342749511644 -0.005728100224730763 0.0
121 2 5.627869999315425 1.6528201009554289 0.0 -0.009328007997894953 0.03117142306079074 0.0
122 1 6.369825478898402 6.014615131877856 0.0 -0.006255425537622269 0.02037695579670818 0.0
123 2 12.005172922266443 19.56897165027229 0.0 -0.016001813590318676 -0.001413106697594001 0.0
124 2 3.6512218778644008 0.08271547869702857 0.0 0.009438996026142862 -0.04985681446685969 0.0
125 2 2.7624597025955873 17.917015321368794 0.0 -0.02464819949838552 0.11626631368941166 0.0
126 2 12.726742877181335 12.789183618762099 0.0 -0.06356205775550944 -0.0021987015527010455 0.0
127 2 4.36971735427777 3.5119938976126415 0.0 -0.06358623881200635 -0.01662986405490194 0.0
128 2 18.59442233509889 9.638194837935368 0.0 0.053882032038088855 -0.012802160387874571 0.0
129 2 14.884178410772416 7.220208822501167 0.0 0.03979901816166034 0.004242204823456428 0.0
130 1 1.1803593594415434 11.111876695266949 0.0 -0.1398347506182734 0.03750447528910455 0.0
131 1 9.819272975035235 5.797652040489632 0.0 -0.035342358055042475 -0.019546437526644412 0.0
132 1 16.11494791646196 11.016594884549578 0.0 -0.060224522249211286 0.07105679786261263 0.0
133 2 12.802906429684109 9.433920206679108 0.0 -0.16449452706398368 -0.07994549359835065 0.0
134 2 7.3512986420065385 17.195952979783453 0.0 0.02812898054887282 -0.08750628120436095 0.0
135 2 15.643535473099398 14.172921504852882 0.0 0.10997105665266815 -0.02191029262792882 0.0
136 1 6.219322573676844 6.962152801750241 0.0 -0.05608164969641977 0.045588703102606015 0.0
137 2 7.235427648818358 0.1824059261791794 0.0 -0.022846765450784075 0.02295797586456068 0.0
138 1 2.930767531645869 19.01186912897822 0.0 -0.19550709013785605 0.032897296233218416 0.0
139 1 18.730889115899288 19.492827958058886 0.0 -0.033844606999143094 0.010894265135829067 0.0
140 2 18.559847682984945 5.769178579604552 0.0 0.005914933291911647 0.01899519364949968 0.0
141 2 0.2733975033872585 11.77029009066235 0.0 -0.04402497562853511 -0.05251287767499791 0.0
142 2 6.5715299928102935 3.534443496468612 0.0 0.05197002997434915 0.024542319561102664 0.0
143 1 3.954850216749757 5.896546205859942 0.0 0.02405811860918857 0.02745440370135758 0.0
144 1 0.6413738083113723 10.721208271729411 0.0 -0.12458956030396307 0.057450892229053335 0.0
145 1 2.6287761213009873 8.831663095765581 0.0 0.10927744000155538 0.05092643635426599 0.0
146 2 15.325164176253804 10.267847438124429 0.0 0.01837796579232499 0.0726953760242621 0.0
147 2 11.938225141125962 2.2178321316745415 0.0 0.1276534448987749 -0.02216249134766693 0.0
148 2 19.701132343483202 5.188154655446488 0.0 0.013016590849272883 -0.0301515120033298 0.0
149 2 9.642643794119694 17.334482333092254 0.0 -0.03660264056271855 -0.026632746891409858 0.0
150 2 12.77222687489297 8.165682660513843 0.0 0.05635057877479833 -0.01432935749213903 0.0
151 2 19.63375828446507 3.934721488569445 0.0 -0.07736174129425291 -0.037366403656399996 0.0
152 1 8.467761559694589 1.4403219075257583 0.0 0.053064828401546936 -0.059711631805205063 0.0
153 2 11.721617571254725 17.5213228988461 0.0 -0.12744513060701063 -0.01187253276464081 0.0
154 2 13.99654669501352 12.45484027088225 0.0 0.005610821424438502 0.04455568681380737 0.0
155 1 7.591119871200365 8.771035185858318 0.0 0.07245877942030646 -0.046656521582827876 0.0
156 1 17.02030545979328 18.966951065793413 0.0 -0.04075339164469763 -0.1158255945971878 0.0
157 2 17.358530842152522 9.298631226329185 0.0 -0.007436967344742489 -0.06250550803077017 0.0
158 2 16.95295872837648 1.8462538715453043 0.0 -0.01982179460387564 -0.005611020669341895 0.0
159 1 4.605651960115848 6.043904626820783 0.0 0.012477371746233172 -0.09983527588392982 0.0
160 1 6.862784283426685 7.243559179403798 0.0 -0.021980875406449978 0.06919726185413817 0.0
161 2 12.787743956761156 1.0605957212873245 0.0 0.03623514247168317 -0.014578799045243705 0.0
162 1 7.865068861152704 1.0970946101848804 0.0 0.08993269187376673 -0.09869751554155187 0.0
163 2 18.96638665208486 7.304437642438889 0.0 0.026919646749968513 -0.10999296868334285 0.0
164 1 19.399610738544634 14.780555106352928 0.0 0.00964692523213663 -0.0323808015878005 0.0
165 2 10.7304818228183 16.694967594288673 0.0 -0.039852763443200004 -0.07200604637927734 0.0
166 1 11.529561381489746 3.275831540569486 0.0 -0.019172874170432744 -0.15043790038651886 0.0
167 2 16.484485913582816 5.877930427887735 0.0 0.015565125856474798 0.05880301532616233 0.0
168 1 17.329146160088907 6.892146750016625 0.0 0.030106895736069422 -0.006230126773539282 0.0
169 1 8.313764989138749 0.5866442810154504 0.0 -0.022934340058013727 -0.059372976480629676 0.0
170 1 17.306268394977632 14.219075495657659 0.0 0.037372504695048714 -0.05583148141242709 0.0
171 1 10.940656999653683 0.017301801858176133 0.0 0.08065990786173503 -0.055994340369960004 0.0
172 1 14.606662513294955 1.9308249063960832 0.0 0.04571895957916028 0.09617050332560768 0.0
173 2 0.979605247500423 3.399225262762227 0.0 0.01348712290454279 0.03852065059314751 0.0
174 1 1.3437054066781933 0.6073350938129627 0.0 -0.016027459931386774 -0.006066434988948004 0.0
175 2 7.290131469081643 15.098818604200517 0.0 -0.0042480309874615855 -0.051651618310390814 0.0
176 2 4.855910269556093 7.9500830567033205 0.0 -0.0761062320010557 -0.003442831243114167 0.0
177 1 17.692787277498955 0.9516283124070047 0.0 -0.11492274685517018 -0.01055533857492164 0.0
178 1 15.369566058189056 17.337014348139427 0.0 -0.042113927826405134 -0.06524341171955954 0.0
179 2 5.463229553043585 4.149891973284534 0.0 -0.0860647595014444 -0.019479443936083474 0.0
180 2 3.9120379576723017 18.540694932006218 0.0 0.0854895324651532 0.032680089995977435 0.0
181 1 3.147380229736505 9.340720348958953 0.0 -0.02528280285374117 0.037012965540235636 0.0
182 2 5.461539162927529 5.408062320798642 0.0 0.04204812098000888 -0.04374297199249478 0.0
183 1 15.558098808862368 2.805660811282348 0.0 -0.05171222707363915 -0.05210116058689347 0.0
184 1 16.42170009950876 10.407497585224005 0.0 0.03942611339675876 0.07703509357196706 0.0
185 1 9.202855965643108 6.620394384758459 0.0 0.08197986627231073 0.03167812691054226 0.0
186 1 19.23656438502417 17.59163582784402 0.0 -0.12753722016457378 0.0063755954236675684 0.0
187 1 15.246471049101949 2.192374667741781 0.0 -0.06907948911746253 -0.0071987826816803345 0.0
188 1 7.925994763204886 13.074596667515038 0.0 0.04601534888226699 0.056783775724952516 0.0
189 2 3.4312892123129597 12.94892360799003 0.0 0.03089335561057826 -0.16550043151897662 0.0
190 1 2.5745902047557485 12.24412344273683 0.0 0.062212325472255095 -0.058699809717651985 0.0
191 2 11.52257707779389 13.148044351152972 0.0 -0.10361872256066224 -0.015759038979513827 0.0
192 2 18.21916058319473 8.3745593742284 0.0 -0.026399519147735983 -0.058327700278832134 0.0
193 1 7.33651111046145 12.69583140891521 0.0 -0.040531584259380214 0.07922457297258396 0.0
194 1 8.013872247337227 7.201856359884237 0.0 0.023810532433863923 -0.07094347818683223 0.0
195 2 8.72228363568006 5.6570636996259 0.0 -0.01266974278619228 -0.0034059043914014303 0.0
196 1 18.032302497015863 1.5530846952782014 0.0 -0.06131574835691615 0.05475896501286215 0.0
197 1 18.20293526132504 19.082352677909967 0.0 0.07208087921734746 -0.14268461146122444 0.0
198 2 0.5307605567218959 16.3559017331819 0.0 0.10704251850020284 -0.15888828322375814 0.0
199 2 8.163720779050143 14.184199899735088 0.0 0.018683306149333175 -0.017760106647884272 0.0
200 1 5.833495303271119 18.92517842961604 0.0 -0.09315912194669479 -0.060270434809188665 0.0
201 2 9.528634666396309 14.708437851266227 0.0 0.03341817317708417 -0.01296017063623527 0.0
202 2 1.7553635583356622 16.059958734214884 0.0 -0.025574034016687196 0.020408787845228944 0.0
203 2 9.452322146086479 10.382331970893574 0.0 -0.09302013820439715 -0.03582675576730238 0.0
204 1 2.0445036806605246 14.977365058530708 0.0 -0.005391041900387531 -0.086562509041258 0.0
205 2 2.657915336078438 13.993922868708152 0.0 -0.05114341727042756 -0.10304957397764855 0.0
206 1 0.045770067312572126 15.324993505737812 0.0 0.01646882950380709 -0.07713062798915893 0.0
207 1 14.349538336022537 19.652855675684314 0.0 0.012835843729171835 0.07186036542737223 0.0
208 2 8.769720487215398 2.5571888905175992 0.0 0.05475826536444164 0.01403885992386945 0.0
209 1 11.505280749209803 18.618415424458735 0.0 0.08143853402230711 0.002352379608126733 0.0
210 1 17.39822897310168 4.0080412286673575 0.0 -0.194749301582356 -0.14582963641927682 0.0
211 1 5.080423723907584 15.457229690157707 0.0 0.18927728753180786 -0.006197214802374712 0.0
212 1 6.402648653230542 9.140720732627098 0.0 0.059460872436753354 0.015588760498943767 0.0
213 2 3.0630271177414743 15.29297951400518 0.0 0.024770248956045147 0.09327002614295038 0.0
214 1 0.4587086830154196 10.086060464549586 0.0 0.036672351458293256 -0.004730728550049086 0.0
215 1 7.33432867591608 9.985798551027944 0.0 0.0022800158831494093 0.09173848964627593 0.0
216 1 5.3431936489321314 9.62534684493666 0.0 0.1737737739743535 0.029637883094907055 0.0
217 1 14.263190229844787 10.074561159424805 0.0 -0.09992470404755319 0.04245200234200449 0.0
218 1 5.0193854222675 10.194702038206092 0.0 -0.05925457313209052 0.0078090106964853545 0.0
219 1 4.641215710584847 9.57827703874403 0.0 0.04755189157928545 0.06315395693012672 0.0
220 1 6.693155583796235 9.765017203010238 0.0 0.05075049088008655 -0.07765384440582566 0.0
221 2 0.5828693027039837 14.272106097167603 0.0 -0.04726260620338948 0.1050847953606429 0.0
222 2 4.844726350168469 19.356492113379975 0.0 -0.0010395603989039582 -0.026753878831782055 0.0
223 1 10.357891462610024 2.8097335532267476 0.0 0.012682977116515257 -0.0830201926291106 0.0
224 1 15.458519690920898 6.265600795832616 0.0 -0.13649859917132887 0.0639731428775777 0.0
225 1 11.674187842518931 7.898221380152923 0.0 -0.07621587888339074 0.030434923283524512 0.0
226 1 11.01406762293617 2.8741045856919407 0.0 -0.06767571311499261 -0.01412708798449767 0.0
227 1 7.868187199250257 12.220320436832496 0.0 -0.09300011426079617 0.12020242722760116 0.0
228 1 16.426425800452524 0.3402040222110647 0.0 -0.16174527078197884 -0.06167676129501009 0.0
229 2 9.618759846376664 7.638264978420335 0.0 -0.02865300572690137 -0.022054404285753566 0.0
230 1 16.979333480507915 0.7332097937374028 0.0 -0.031072221327865215 0.04982133870134635 0.0
231 1 12.43249714969913 11.731424485987434 0.0 0.025614288769006135 -0.007004269545471838 0.0
232 2 9.492398716854385 8.976631334136654 0.0 0.0466148627284928 -0.02148257738536409 0.0
233 2 9.782581491939554 18.562307520091853 0.0 -0.017220507702805383 -0.054334211592621785 0.0
234 1 18.45320444721224 15.650828991398951 0.0 -0.013278372203927564 -0.06827375796370705 0.0
235 1 3.8365865843152904 9.36844248785873 0.0 0.018346791711808277 -0.11326335715393591 0.0
236 1 7.431002652729686 6.8482875768888505 0.0 -0.12158229580202715 0.0479171529283192 0.0
237 2 2.753598325152309 10.524115085448951 0.0 0.07419464214976292 -0.004552608343804384 0.0
238 2 0.6747957751042635 7.822114040905577 0.0 -0.0317134212676191 0.019549018608006848 0.0
239 1 13.605841373655847 10.117358880933729 0.0 0.11021111230343784 -0.08465399319227854 0.0
240 1 10.881098319111542 10.727657953340799 0.0 -0.17479657949779806 0.07513261055613332 0.0
241 1 0.7229844168023184 17.438812213487775 0.0 -0.16289899936957372 0.0627742121217776 0.0
242 2 9.501201479652636 4.6941880467707415 0.0 0.10104404827794836 -0.04071912909827302 0.0
243 1 10.396053181970915 6.139611046931338 0.0 0.011225427186703024 0.1464994424597878 0.0
244 2 2.003262964097913 5.763920370246324 0.0 0.034127277875279215 0.05227461939943759 0.0
245 2 6.310653740720516 12.047499841830124 0.0 0.07460424085045497 0.10796757682694505 0.0
246 2 4.332252108700823 4.84813031999523 0.0 -0.02692804156632416 0.08645494426636313 0.0
247 1 14.716383611532992 17.16036214171943 0.0 -0.12513121780896583 0.03549644760599786 0.0
248 2 10.740884477619735 1.8264446734365316 0.0 0.042239356090230364 -0.0480890962678354 0.0
249 2 15.096391983493517 3.844573921363363 0.0 0.004805784145006075 0.05201946941046567 0.0
250 2 2.398299555158657 0.31582593170792683 0.0 0.029422753045874318 0.02158270051529277 0.0
251 1 0.3802311730967546 12.906513659666302 0.0 -0.04169956278665903 -0.06706009704703342 0.0
252 2 19.302057572875928 13.674099264627614 0.0 0.024976660707915564 -0.00414370486411225 0.0
253 1 0.39254533838032424 6.195855692902573 0.0 -0.03157611366994568 -0.040093678615122884 0.0
254 1 19.074423793650652 15.354842967541975 0.0 -0.07224834342039667 -0.033921643251325705 0.0
255 1 7.33107416361836 13.403667092790164 0.0 -0.16537982379634888 0.15236722451437773 0.0
256 2 16.459586029659405 17.966936170892073 0.0 -0.0071742430771655034 -0.04192856864927669 0.0
257 1 7.614916593468073 16.133839056983252 0.0 -0.06502836514280325 -0.06216007015052233 0.0
258 2 0.8616727803897872 9.054770673903876 0.0 0.023844989406898626 0.12124890195483942 0.0
259 2 2.2017281713839827 3.1868925860352357 0.0 0.06687411189245943 -0.004523322516355536 0.0
260 2 3.3712467831484663 2.7473804272851203 0.0 0.02947892787949247 -0.019120950856457465 0.0
261 2 11.33366830631816 14.411127024138455 0.0 0.006297469198648602 0.04953738734619768 0.0
262 1 9.105045200236667 1.1616027911799418 0.0 0.0795113199640725 -0.043069833479926434 0.0
263 2 16.238695908243166 16.628728703143057 0.0 -0.045081690837482355 -0.03313104740131513 0.0
264 2 8.523325927722755 16.7306553205281 0.0 -0.0054811126932998435 0.01205690439227471 0.0
265 1 18.864507544628182 18.156774147298083 0.0 0.15292252605688086 -0.00526573004887865 0.0
266 2 6.117426909748708 8.043748094910963 0.0 -0.00716393745566003 0.003565021233655209 0.0
267 2 4.049781601618691 6.990448222094208 0.0 0.02010405500418584 0.055095992914806095 0.0
268 1 9.404595616120154 3.584599685261024 0.0 0.07179091391626605 -0.004465714923759343 0.0
269 2 3.52108474915549 8.2050640194974 0.0 0.05606396794119547 0.08492559076003418 0.0
270 2 1.518644835872597 18.166610966466443 0.0 0.06537895992345791 -0.05540671197459562 0.0
271 2 3.9670164243343673 17.275271934857038 0.0 -0.02710587659886401 0.021047055648440425 0.0
272 1 17.769167171227608 10.325838278284236 0.0 -0.03274287081435603 -0.004990200723366814 0.0
273 2 12.617681354298396 3.3253800119900205 0.0 -0.050091268618562064 0.034442057751044294 0.0
274 2 13.864716618678237 3.4952518931082874 0.0 0.004335498064827786 -0.03984974572443938 0.0
275 1 5.043528308945579 9.012308609686237 0.0 0.0010865085215706258 0.04387063346253468 0.0
276 1 19.506617683663634 6.322081258220651 0.0 0.029663433778338157 0.08096581310233336 0.0
277 1 15.129477441523743 1.5277289592791314 0.0 -0.0021253101528416283 -0.08502750911274203 0.0
278 2 0.03614616813650722 19.66961383479617 0.0 -0.05122234673693759 -0.023315052524871566 0.0
279 1 14.836356850426432 19.19564355710243 0.0 0.012163880323977465 0.02198037322085463 0.0
280 2 9.579608922729069 16.057062609558624 0.0 0.03179865825147323 0.03623987507355752 0.0
281 2 13.304998382164376 15.228769496627862 0.0 0.003353917902234835 0.08458805748207188 0.0
282 1 0.20376072254854732 6.829054656096085 0.0 0.011960618319571866 -0.016442048708731834 0.0
283 2 4.6987668624398164 0.8268728256495946 0.0 -0.09673725685238965 -0.004661222648661946 0.0
284 2 16.072000518000642 15.364671251653993 0.0 -0.002464928599240947 -0.0036886929901055556 0.0
285 2 18.848918081002534 0.8330392939083172 0.0 -0.036063917264750875 0.0289744733406524 0.0
286 2 10.512735798814836 3.8749184224299835 0.0 0.0062639613616396715 -0.0159526975607109 0.0
287 1 18.51576448167118 11.498989133355563 0.0 0.025107934196202285 -0.058979211183528925 0.0
288 1 7.227658726750846 9.339162824113945 0.0 -0.0791501119950263 -0.016842677716657015 0.0
289 1 17.847765424649914 11.463583497025569 0.0 -0.051964519083678225 -0.003405644196242849 0.0
290 1 8.672348496244656 7.032711018703018 0.0 -0.09665368278481297 0.07904243693279987 0.0
291 1 1.9622463448236824 9.018208263992532 0.0 0.02675790484687703 -0.10779892385878684 0.0
292 2 13.955531532601686 11.143474317964577 0.0 -0.04881137994873335 -0.03448912734972939 0.0
293 1 17.638812762958555 18.71337119561364 0.0 -0.16490384257012414 -0.06543565205729006 0.0
294 1 16.283997540477753 0.991671284058873 0.0 -0.020777591807936393 0.05256155370596574 0.0
295 1 16.411266287434515 4.800795102044888 0.0 -0.017492314899665278 -0.07286025910082752 0.0
296 1 5.727534775727578 15.66443186712039 0.0 0.09413960181737363 0.018720413839533746 0.0
297 1 2.975446938275552 7.207008777829146 0.0 0.06188017897312998 -0.045124998665255656 0.0
298 1 7.730678935458365 10.52228302892494 0.0 0.12330432020306736 -0.07157123654970474 0.0
299 2 11.681773886060839 9.00705375273792 0.0 -0.11529722920799944 0.07503271782237501 0.0
300 2 5.3736147360622 14.42287930139833 0.0 -0.03521654060720673 0.007159319559439511 0.0
301 2 2.922084293552323 16.564160073434124 0.0 0.08525468385015367 -0.031045021869315757 0.0
302 2 16.10455686541593 9.350794803732395 0.0 -0.0019348529141235099 -0.032534781278317264 0.0
303 2 11.48381049007203 6.079257055468911 0.0 0.09755744147570145 0.017783674878192993 0.0
304 2 2.063193241687953 7.887308331975244 0.0 0.04581891763044281 0.03373833878049957 0.0
305 2 3.4942836910010486 1.334509192638675 0.0 -0.02233584301510635 -0.030342762978339224 0.0
306 2 1.5598369366964797 10.082883810213422 0.0 0.07697181269398835 -0.033919080375796905 0.0
307 2 15.128868941616068 11.499454987569349 0.0 -0.05605955871785704 0.10389448024363852 0.0
308 1 7.302007383361016 8.169439672945458 0.0 -0.08261694463670038 0.085320142833346 0.0
309 2 10.6403008817355 8.368502414390454 0.0 -0.05984702871955683 0.11880472725773629 0.0
310 1 14.57428784777693 9.480326253427785 0.0 0.06531495577307661 0.12769981636792813 0.0
311 2 13.117285674592436 5.939672012036296 0.0 0.05920936298123367 -0.02421298542007719 0.0
312 1 6.487311260635922 19.11033291268417 0.0 0.04223745053151797 0.04233148032662735 0.0
313 1 17.50711945299716 0.30463276912331266 0.0 -0.06901923275448124 0.03014907532755798 0.0
314 2 10.836045191159178 7.136987997746068 0.0 -0.032922644742527415 0.012286882977314732 0.0
315 2 8.352857550377978 9.545845069848637 0.0 0.0896985342683947 -0.015009814114657637 0.0
316 1 3.0248614510703034 6.443465183536738 0.0 -0.05404455258994714 -0.06336552572387577 0.0
317 2 13.262170889682672 19.64833711871669 0.0 0.020333198171801445 0.008034655046720721 0.0
318 2 11.726860419095445 4.32677849587533 0.0 0.02401760611606258 0.02083717521434875 0.0
319 1 10.8744618312219 18.396513528196298 0.0 -0.061897149331185126 -0.12083555549531332 0.0
320 2 3.5125772558379174 11.640625410400524 0.0 -0.06286138966077147 -0.089240657687114 0.0
321 1 17.56500900977388 19.381265273450392 0.0 0.026598363599939258 -0.14253172080095952 0.0
322 1 12.221162003586008 5.315456689819639 0.0 0.05189564694708251 -0.0012121805383450378 0.0
323 1 13.68762815460596 14.192737878105058 0.0 -0.072212661334615 -0.04625737986834981 0.0