ITEM: TIMESTEP
0
ITEM: NUMBER OF ATOMS
400
ITEM: BOX BOUNDS xy xz yz pp pp pp
0.0 19.7609 0.0
0.0 19.7609 0.0
0.0 10.0 0.0
ITEM: ATOMS id type x y z vx vy vz
1 1 6.146072662038001 14.665228079694051 0.0 -0.03566306168254342 -0.0330991146670286 0.0
2 2 0.4296022166218987 4.9659213206980475 0.0 -0.04573324471734581 0.009102815854981383 0.0
3 1 5.737160852713547 3.093955495356167 0.0 0.10923322269786774 -0.02558678141538053 0.0
4 1 14.56873086947719 10.00022086734165 0.0 -0.021058777225917532 -0.058035775861552744 0.0
5 1 4.900105122574665 12.986443308679487 0.0 -0.058245838536251794 -0.14546340163423185 0.0
6 2 2.379115788951382 10.57426539566927 0.0 0.039001602370911916 -0.02004347398489181 0.0
7 2 6.901205140621332 2.826470396807134 0.0 -0.004333988908717258 -0.02789448965880871 0.0
8 1 0.8965593166270897 13.800488221063869 0.0 -0.04275575285698025 0.041743608682943065 0.0
9 2 6.131071230039777 15.77281184818731 0.0 -0.030983505168149662 -0.01642572292502924 0.0
10 1 15.380489236260003 2.176630483822565 0.0 0.032976516454119156 0.07433427894428365 0.0
11 2 5.60800888216037 11.450637085607587 0.0 -0.02022980397153883 0.009670057057644794 0.0
12 1 13.302100534370942 7.6112082893399515 0.0 -0.09686984224690316 -0.0020941319507581328 0.0
13 2 2.06014648428609 2.750540252294311 0.0 0.04717923798651157 -0.022418271761599235 0.0
14 2 19.59039298961708 3.867584213625951 0.0 -0.0037218297681459213 0.004198782106567507 0.0
15 2 5.0100983854827446 17.54685309238491 0.0 0.0301625589848944 -0.03676160510528861 0.0
16 1 3.822119033716531 12.025064762297951 0.0 -0.10209146619572697 0.11446033149839918 0.0
17 1 1.4868060844550852 9.937519481279239 0.0 0.06548503672623729 -0.08361641295183708 0.0
18 2 15.487553827444092 17.8182111352411 0.0 -0.07133384555115255 0.0803672481855855 0.0
19 1 8.50250545676513 10.293378742552303 0.0 -0.13170580367974732 -0.04999432529224172 0.0
20 1 13.252924072472343 15.571272133772291 0.0 -0.03180691060726374 0.05287986277827463 0.0
21 1 13.703516823407401 12.30633728815783 0.0 0.057453349324208404 -0.005209081087781 0.0
22 2 8.801006709833347 1.2957634669698195 0.0 0.0063669174119680445 -0.014575418844621633 0.0
23 1 13.185650354186722 14.259727215543116 0.0 -0.025535940402735036 -0.00798160339912547 0.0
24 1 14.156755692242047 6.665345906442308 0.0 0.012165374429869263 -0.061981548329629356 0.0
25 1 16.705024042087878 5.291930934576926 0.0 -0.006790381369000257 0.022783705551328963 0.0
26 1 12.987833595682094 18.475380120084047 0.0 0.020229779963416294 -0.12373546376091836 0.0
27 1 4.99487306114057 7.674239077931449 0.0 -0.12411012935939415 -0.1838971823299411 0.0
28 1 19.571088107875827 13.683788337179706 0.0 -0.05116160548493564 -0.05030082252580092 0.0
29 2 16.265313119196822 1.4489914006700757 0.0 0.018607655801291798 -0.02933471162120014 0.0
30 1 5.470954365385384 14.80824729484136 0.0 0.05185579322589492 -0.17072084519094302 0.0
31 1 3.437442555410542 10.898965670271123 0.0 0.04110284828423287 0.05699890741414835 0.0
32 2 10.800388918651729 10.280931663991137 0.0 -0.00618824957525856 -0.07122154195897253 0.0
33 1 9.536454801778497 19.115190824794954 0.0 -0.017770085158719168 -0.0694648734957605 0.0
34 1 4.413657358059364 7.345047137797388 0.0 -0.04045287904495313 -0.003264355790142332 0.0
35 1 0.16009933610712881 9.702647806042554 0.0 0.05603318760633279 -0.003109858970551175 0.0
36 2 17.96552168784604 16.364296368162005 0.0 0.0826684418997026 -0.05167321213040993 0.0
37 1 13.185570062608473 8.867921223054003 0.0 0.05894588574792315 -0.15030154341165955 0.0
38 2 15.706371121565562 13.504374762442437 0.0 -0.026951754136857495 -0.05718565039917188 0.0
39 2 16.569310258991198 10.277263787756883 0.0 -0.009035070936186588 0.025007874910341402 0.0
40 1 7.202240968694046 15.497337765688918 0.0 -0.020381813992453746 -0.007872239602931019 0.0
41 2 18.492833491013037 3.1389543769629498 0.0 -0.07030842684626352 -0.03275024997284525 0.0
42 1 2.8822944303328697 1.3124427353546249 0.0 0.014180251111952757 0.044181929647688294 0.0
43 1 11.031644437558558 3.4386421910189755 0.0 0.053902548228291325 0.04676274342303072 0.0
44 2 18.124751537746604 13.068026415645717 0.0 0.05157980954721023 -0.041901703832104675 0.0
45 1 4.103584551784983 10.690494847723697 0.0 0.029191422871815028 0.008737003593566967 0.0
46 1 2.51051257776471 12.326864874512392 0.0 -0.015009430781641036 -0.08531813759243713 0.0
47 2 3.7547853291902706 17.602526132470263 0.0 -0.034624302642706925 0.060286822734488904 0.0
48 2 12.022852103671633 16.695759186265814 0.0 -0.026836702493587997 -0.016272904424919403 0.0
49 1 1.6259963568237639 11.342366078482424 0.0 -0.003551996935243934 0.1592484558696864 0.0
50 2 17.31452971233788 8.390871600705223 0.0 -0.018505114283703192 0.039887717685543625 0.0
51 1 5.922230452859052 5.67349934423978 0.0 0.013588066551949279 0.003902488909297618 0.0
52 2 3.1482463904529348 14.624500922615361 0.0 0.09533654465460835 0.027378241600312058 0.0
53 2 9.441421883268632 8.122435992988327 0.0 -0.04079821968439811 0.02789269966045407 0.0
54 1 16.594312285971817 9.195361746331931 0.0 0.14100931535355596 -0.0007904387831378608 0.0
55 1 3.2773692962040544 11.562547114088877 0.0 0.03910785404683745 0.042117239388968615 0.0
56 1 14.317805068789049 10.61430517216382 0.0 0.02019877935898483 -0.03569619997281736 0.0
57 1 1.964016890574748 11.91698791415034 0.0 -0.023818019137637505 -0.08909399597076156 0.0
58 2 2.213591091327495 19.022916504201056 0.0 -0.049844169844571795 -0.029788098796653208 0.0
59 2 0.41292787087366056 6.265650475477306 0.0 0.12283904081294038 -0.0018906898521008778 0.0
60 1 5.868246344506893 9.747777560805014 0.0 -0.033263989964402635 -0.10634649692242508 0.0
61 2 18.617789018974097 1.8958020695211648 0.0 0.03962455782266695 -0.01338128964027893 0.0
62 1 1.2107360133444713 11.922603619902366 0.0 -0.007538438195880027 -0.014312024719363365 0.0
63 1 11.164018725035481 16.036074759289935 0.0 0.21019213479470109 0.041151670744524325 0.0
64 2 13.400477600382654 19.516690696926172 0.0 0.0420101003909555 -0.021586803224490057 0.0
65 1 2.363512403039916 1.711711179100376 0.0 -0.11672840488748294 -0.04980519245068422 0.0
66 2 11.31619590912812 6.83765970222563 0.0 -0.007130743722784684 -0.119795967601393 0.0
67 1 6.163485885628495 10.474434693060958 0.0 0.14004133983071074 -0.007072052724575082 0.0
68 2 18.840382960329247 9.901523396282741 0.0 -0.03259101210711851 -0.006030078257645782 0.0
69 2 17.65328738967161 17.582239498794745 0.0 -0.05632564185242995 0.0017325378901441198 0.0
70 1 16.885414062191256 16.7405155224029 0.0 0.08977505284007702 -0.19563810437236168 0.0
71 1 3.0165764925774576 2.0451854089864523 0.0 0.11779551979564454 -0.12041725116389343 0.0
72 1 15.586445340565746 12.314144930588949 0.0 -0.02847057890074163 0.005071230708690192 0.0
73 1 6.495302040154437 16.85492156962318 0.0 -0.09538765559955455 -0.18363138179362634 0.0
74 1 14.977218875695682 14.335903661977001 0.0 -0.07003047762032566 -0.06631721655625161 0.0
75 2 9.570651677721038 10.230887634434675 0.0 -0.014963192926298921 -0.0041365630784577865 0.0
76 1 14.618588080432447 1.1141126092849294 0.0 0.01204076031472504 -0.11520067470550342 0.0
77 1 8.473044224500201 15.36603221910871 0.0 0.006453149452521494 -0.017237273199390883 0.0
78 2 10.191441708234949 9.144857898611482 0.0 0.03638284032169977 0.0046620616891921525 0.0
79 1 13.20946665315531 3.735751144535717 0.0 -0.10417855350441331 -0.1643750460403101 0.0
80 2 14.907818145039096 15.411165346312508 0.0 -0.047973950239341735 0.01411597461538749 0.0
81 1 9.686354050370147 17.096987194818098 0.0 0.027296765447488238 -0.09042851644515648 0.0
82 2 7.448206446390643 4.8024707157426265 0.0 -0.009880436892728604 -0.024934943935091835 0.0
83 1 8.802751294581597 14.136298395907195 0.0 -0.12496796858741258 -0.11337714310753967 0.0
84 2 2.235266873677688 15.553668841995286 0.0 0.03660262608979684 0.05689304151418541 0.0
85 1 5.207712472754174 16.466894225777718 0.0 0.032952028359844274 0.025961620478321366 0.0
86 1 7.111147039104582 1.7312570113196661 0.0 0.10412441689506545 -0.04260496203101608 0.0
87 1 7.01926232347277 18.193726241784464 0.0 -0.029239392541796277 0.031143550947645354 0.0
88 2 13.464851818197099 9.93508366975374 0.0 0.007155005865732864 -0.016687794297133924 0.0
89 1 13.55767947932266 6.376536900929251 0.0 0.1916511611088411 0.08739061168842852 0.0
90 2 11.012933433010714 14.96354799503489 0.0 -0.0020974235914068707 0.01838758449984965 0.0
91 2 12.1557064979717 15.44276281159728 0.0 -0.03173167766949844 0.07432335489212212 0.0
92 1 18.170756063053076 11.420020328672482 0.0 0.04352365458549576 -0.17966563073954944 0.0
93 1 10.4170414717809 2.3174109426890497 0.0 -0.044881626129681454 -0.007447611809273012 0.0
94 1 13.61755419538624 7.040652185956907 0.0 -0.09235843169075886 -0.15120356140499397 0.0
95 2 9.861215529081031 4.610271762245949 0.0 0.0017568845306965692 0.09622669804711888 0.0
96 2 3.4163427897336565 9.795115710596972 0.0 -0.013382419794780012 0.06650563790347963 0.0
97 1 5.1001846724379085 9.80673076259961 0.0 -0.019521083589660218 0.03175886685938223 0.0
98 2 8.802985797271905 16.426305004849194 0.0 0.034563064594058314 -0.048240076014239255 0.0
99 1 9.033073754935225 18.704551768809235 0.0 -0.12905076385189546 -0.11681150091229989 0.0
100 1 9.146818436131527 15.38044298111532 0.0 -0.23264709977912787 0.05629585219720071 0.0
101 1 14.420630813136635 17.404334776334004 0.0 -0.14907456577314773 0.10272821258928443 0.0
102 1 15.641070331762325 14.570652888215676 0.0 0.11073385504426578 0.002523111864144368 0.0
103 1 2.085221444356327 9.455978051819182 0.0 0.0006644655752189942 0.0464835321145324 0.0
104 2 12.29288292530062 1.4919086409978104 0.0 -0.005748642277980145 0.003147434063224986 0.0
105 1 9.85930831527135 17.759549977016167 0.0 0.06420703755596471 -0.017246609585402337 0.0
106 1 0.801358841907351 10.02650657228382 0.0 -0.029695624819513544 -0.07705469631904258 0.0
107 1 8.393906086648034 13.59063838958429 0.0 0.04594881533614234 0.06601979557525382 0.0
108 2 18.702989970993272 18.901143931694765 0.0 0.051713105423828946 0.026708427001322484 0.0
109 1 16.70967092034694 7.479382490112451 0.0 0.03156756054897993 0.01898542331335104 0.0
110 2 14.325490717415642 8.939765368595172 0.0 -0.04932859790317741 0.025133922531469954 0.0
111 1 6.438018868481372 5.215491909142278 0.0 0.0053824452526902815 0.10946889161424214 0.0
112 1 15.3529776929425 3.477625683878872 0.0 0.006002722070576718 0.08342904495291255 0.0
113 1 14.028943718508918 13.355464791817452 0.0 -0.025068869830296065 0.024461544966782562 0.0
114 1 12.46783949786949 18.920726229655955 0.0 -0.02751587399261788 0.004639377220819143 0.0
115 1 6.807598314434707 17.53185671162155 0.0 -0.05348740298547861 0.009339684356664261 0.0
116 2 8.829758153428703 3.7495080669216336 0.0 -0.002710768154883141 0.08049115513819018 0.0
117 2 5.523542529316028 19.653064951658024 0.0 0.06673451130772008 0.0186345261009489 0.0
118 1 13.622843874121845 4.372236691390554 0.0 0.0030255481859086664 -0.026520153188150975 0.0
119 1 10.172751014975368 19.13597341388618 0.0 0.021135006801222368 0.016190561121501693 0.0
120 2 8.7729524666263 7.057031946889784 0.0 -0.06013591945554662 -0.06490874974986639 0.0
121 2 13.052175994709229 2.5859109054210956 0.0 -0.00028651364528892387 -0.08651991130685538 0.0
122 1 11.854827616409734 10.302192091472932 0.0 0.060162340908295274 -0.05879669566732476 0.0
123 2 15.520006466607176 9.459643873626607 0.0 -0.03629861023198368 0.09163781693562574 0.0
124 2 5.384581746760646 8.724148285110195 0.0 0.05911703736227267 0.02969958824468963 0.0
125 2 8.074721762064893 8.222816509994244 0.0 0.019944477051023438 -0.01945667840458614 0.0
126 2 7.290007167768627 13.334461672189365 0.0 0.07118171766116238 0.013269293728190763 0.0
127 2 7.708852351655363 11.036192373911616 0.0 0.05330221995185616 -0.03591737350355646 0.0
128 2 17.751569950756394 7.169751576307538 0.0 0.008525928864172043 0.02549309974312877 0.0
129 2 15.630261519965147 5.475326093510634 0.0 -0.05151599216707826 -0.03939288414673769 0.0
130 1 4.34509942059088 12.559220045464478 0.0 0.07452041769924436 0.04122060875983528 0.0
131 1 18.672506561003267 10.983891310600601 0.0 -0.14856451654513986 0.16067697262656414 0.0
132 1 6.603928993216367 11.074859588411462 0.0 0.05429030997767581 0.17386075759173725 0.0
133 2 12.31884827782328 8.129645894466504 0.0 0.04441197520663712 -0.04315397819530974 0.0
134 2 7.970391122989947 18.76043396260812 0.0 0.022519674989904738 -0.06622559903024751 0.0
135 2 8.824648496375998 2.4977798533809366 0.0 -0.010604906759716077 -0.07519144686480532 0.0
136 1 15.16292275732198 1.5492797360353696 0.0 -0.03482597966502879 -0.07263764750209595 0.0
137 2 3.8553236091182463 4.560074393841062 0.0 -0.030377060023445004 0.022410202812787616 0.0
138 1 4.559726029092898 11.189971379555306 0.0 0.09298304096881152 -0.01636301933551221 0.0
139 1 16.376065035099156 14.476373403567482 0.0 0.06394127832725108 -0.049737297393931845 0.0
140 2 4.094163832349052 13.709944444512965 0.0 0.08064803114434314 -0.042854607623161345 0.0
141 2 17.420401365674426 18.79964078599154 0.0 -0.01893180634991513 -0.04957704389655389 0.0
142 2 12.976919780778104 13.155158690967964 0.0 0.003206947747783265 0.019774207086639465 0.0
143 1 0.9772409416728406 11.235096166101455 0.0 0.011920071404204828 0.2257048172178412 0.0
144 1 13.797238826053722 13.994329380043505 0.0 -0.032548817485019546 0.007318267971208569 0.0
145 1 15.14940268742542 2.8153621059429996 0.0 -0.018409962837312912 -0.018033728570145378 0.0
146 2 1.0053128843260954 19.335030957081756 0.0 0.06645349366554582 0.03312621513156991 0.0
147 2 14.65563416224537 11.676310524402222 0.0 -0.017220378522149152 0.09223522637226064 0.0
148 2 4.3191178258368135 15.038810331712524 0.0 0.009036876379918263 -0.015209615945924322 0.0
149 2 1.9514161266406815 14.239212669858196 0.0 -0.05583851147675139 -0.04639553195917792 0.0
150 2 19.30094850218513 16.36654396388746 0.0 -0.046390903518979405 -0.0008622488299343187 0.0
151 2 14.034311362689733 16.333427220352775 0.0 0.07180076995521331 -0.016581008335204945 0.0
152 1 0.5281497731109407 11.733306944435949 0.0 0.04927966429659436 -0.003964127087665774 0.0
153 2 5.976009470785002 12.730613908443132 0.0 0.01732859081851219 -0.006011767138351195 0.0
154 2 2.811780625577867 3.7961421786950473 0.0 0.0077747401045180145 -0.003919065965701894 0.0
155 1 12.299318515367283 4.648423275565945 0.0 -0.03049059943833025 -0.013328813580358827 0.0
156 1 14.259253006039515 12.713877834628072 0.0 0.09155322108495825 0.06566835367371766 0.0
157 2 18.919721210081065 5.252879047503875 0.0 -0.027361157851441838 0.02471447867777878 0.0
158 2 14.382167839678658 5.602114711867821 0.0 -0.04670756324646121 -0.062254881717515455 0.0
159 1 6.353926683159472 9.229121222879838 0.0 -0.05040425070744424 0.004415415795972466 0.0
160 1 0.893191427559865 14.47391226985178 0.0 0.03497899805906945 -0.03578659690737347 0.0
161 2 7.666429785518038 0.7578316225122275 0.0 -0.04393360673872354 0.0108117481594406 0.0
162 1 13.666284783280087 18.37593937594452 0.0 -0.0538963967131007 0.11724656034071897 0.0
163 2 17.60081106959593 4.68065569227242 0.0 -0.03121271030815822 -0.020822787659836098 0.0
164 1 7.938034984658982 3.1218716030139917 0.0 -0.10269416574338004 0.06022360089454799 0.0
165 2 6.419391738887787 0.813497618406474 0.0 0.03977349258819806 0.06623699335085803 0.0
166 1 13.779950487379631 10.99892841885843 0.0 0.04893316472499181 0.171080668887519 0.0
167 2 11.177454650405954 4.53448164750333 0.0 0.08175086588168325 -0.008534565788797967 0.0
168 1 19.58678208175136 11.891723582972336 0.0 -0.019353909520549023 -0.13626283138418915 0.0
169 1 1.4778999222507372 6.698016354778876 0.0 0.01095221284232482 -0.02378343337038111 0.0
170 1 9.691672835716803 18.435535561856145 0.0 -0.10771159248724363 0.19064880770924889 0.0
171 1 9.671615734687478 0.619657619096763 0.0 0.004742347237605856 0.050255657458187504 0.0
172 1 6.29527567552424 7.876490328252594 0.0 0.025697046951081243 -0.10440149359759246 0.0
173 2 2.9255671971604373 8.642515255560962 0.0 -0.09455250463020373 0.06114728428744691 0.0
174 1 15.724467836635336 0.39719737827809676 0.0 0.05458692456139965 0.0786118671005895 0.0
175 2 2.0398639174096864 7.669044748372744 0.0 -0.024299958514393587 0.13297548714009746 0.0
176 2 10.798162914377672 13.747700499657952 0.0 0.0625656276080381 0.013114127772369023 0.0
177 1 19.248206554505437 0.2951384260791417 0.0 0.04235288667939881 -0.005363894857293493 0.0
178 1 13.895736827900134 0.9591944200318568 0.0 0.11958619887195983 -0.021925288089403916 0.0
179 2 4.0899529196570015 16.374250631376047 0.0 0.009884731759105665 -0.014589102532774186 0.0
180 2 0.44159497210626936 12.79264734424285 0.0 0.04375637476991557 0.007215695873753269 0.0
181 1 18.36641601414328 14.197147438366002 0.0 -0.10023149244824067 0.016711918417693213 0.0
182 2 17.748762170088284 5.904517612869646 0.0 0.034611026371123135 -0.01880360426030992 0.0
183 1 18.97655632190094 11.589953848957178 0.0 0.023923105939024747 -0.06404545275155347 0.0
184 1 1.8622909209287966 8.796421988505362 0.0 -0.027854089747903522 0.1084548254971825 0.0
185 1 5.807787657657663 16.801072037452915 0.0 -0.005646277676892354 0.036547649575271436 0.0
186 1 11.101954623218775 0.31108198950135607 0.0 0.08899847483253427 -0.06690705254099895 0.0
187 1 3.001870086569098 0.01936221135306589 0.0 0.06413046745408828 -0.06127635962527898 0.0
188 1 18.56376431004576 0.22321306669590188 0.0 -0.04881887485943091 0.11085644921272833 0.0
189 2 0.13958101429902717 15.238214790919395 0.0 0.032300210809141465 0.043981734660148375 0.0
190 1 5.058170662781749 14.239595861214294 0.0 0.027433811727148948 -0.015757300439851615 0.0
191 2 6.009626676458841 1.9948812566840386 0.0 -0.005461200034400379 0.040359588228145594 0.0
192 2 11.752349180397653 12.928145551024345 0.0 -0.07431169424042736 0.00936159531206239 0.0
193 1 9.830701185370492 1.9699345265477166 0.0 0.04931775443582639 -0.007608468926624792 0.0
194 1 16.23837586473628 16.991345399627704 0.0 0.06158418437110132 0.04477067127951062 0.0
195 2 16.210121187896615 4.261250647883828 0.0 -0.010919465149491478 0.023136451941531452 0.0
196 1 18.406989650130026 8.22316288062693 0.0 0.02397348022372097 -0.07075744235406799 0.0
197 1 16.230205310577865 12.528765658050936 0.0 -0.01943366680962225 0.13873195503191738 0.0
198 2 4.124457098197888 0.1160803265446457 0.0 0.0004159547022567483 -0.062259680041070166 0.0
199 2 1.623153726723186 4.314851524356496 0.0 -0.012310699066412106 0.05856459882439867 0.0
200 1 7.679094149104009 9.297621609818053 0.0 -0.04104545913802268 -0.09084760551964252 0.0
201 2 14.454544289882932 7.720699247683591 0.0 -0.00043676189254991394 -0.053475161852714365 0.0
202 2 7.565314906819274 16.666933593193576 0.0 0.0011683558688345653 0.02265364910671339 0.0
203 2 17.024377132907905 15.5408993664813 0.0 0.008993371224905594 0.05066401438730015 0.0
204 1 7.9472230671981965 9.9237031019535 0.0 -0.10744837188341781 -0.03533647985670027 0.0
205 2 19.744256036025863 7.444825300210541 0.0 0.06221537511013509 -0.004058202323724196 0.0
206 1 13.206511403763917 0.8212279971845672 0.0 -0.09376508622146625 0.048095631236882055 0.0
207 1 11.102072796490898 17.2975238438759 0.0 -0.04774119119270877 0.06096824148418851 0.0
208 2 12.095553922652874 14.169954183171857 0.0 0.033889925145552405 -0.06296275851841417 0.0
209 1 13.800571853479244 15.155889743272558 0.0 0.0967359936424317 0.026809993364396517 0.0
210 1 9.844195285670228 19.729777983206645 0.0 0.0015824527319130578 -0.014496691357856093 0.0
211 1 15.947547646291413 15.757677187849504 0.0 -0.06628920193067836 -0.023732622557652367 0.0
212 1 14.196019737727134 18.776834819557454 0.0 -0.035091600157362186 0.08825310013925089 0.0
213 2 15.872866742179848 19.051884680719304 0.0 -0.1033519052790804 0.07158694138571199 0.0
214 1 3.6940372069854273 12.6706013368003 0.0 -0.06730329124867752 0.06758859084900755 0.0
215 1 9.856147119590073 3.3741040037553884 0.0 0.017702617793201043 0.0012421990183622844 0.0
216 1 12.409056478701302 12.05771009132109 0.0 -0.05352051638354177 -0.06408139386001846 0.0
217 1 7.0087776652547635 9.368546956713281 0.0 -0.0949046445436462 0.0762807551341173 0.0
218 1 18.56413118924921 4.224379382061411 0.0 -0.03397708782832601 -0.08020692588544683 0.0
219 1 1.231810900146702 15.080758948179675 0.0 0.021646698685073438 0.04245516377227881 0.0
220 1 16.54327254349131 18.189830563041582 0.0 -0.06581505962055302 0.140502410560626 0.0
221 2 1.6205727285542182 16.734991356244375 0.0 -0.07290552215784461 0.014192040847086508 0.0
222 2 7.073899262020306 12.086892600470323 0.0 -0.02371824468084773 -0.06994825791545242 0.0
223 1 1.0292784049292854 7.179897366965149 0.0 0.09587131621207012 -0.030409855768061163 0.0
224 1 0.8653971298091196 0.6582348094933735 0.0 0.04911924916075563 0.1314808117658888 0.0
225 1 8.807593318437824 14.795501837965851 0.0 0.0004153245825988084 0.13512435405735043 0.0
226 1 14.344377022057822 18.093851197073597 0.0 -0.009865933180031681 -0.06615486140908564 0.0
227 1 11.771978435729167 18.975813903549255 0.0 0.010968736758212432 0.04949366470891977 0.0
228 1 3.13116646537025 2.7510027781003323 0.0 0.0344591811315956 -0.1223023813824068 0.0
229 2 17.363421873847503 2.2303483405319535 0.0 -0.004153205306450758 -0.030563143664587705 0.0
230 1 18.827730331725522 0.8291209376245573 0.0 -0.02739787350318803 -0.09354943855817231 0.0
231 1 13.459078085231052 8.258214630657768 0.0 0.09202226097129294 -0.0361753369485087 0.0
232 2 10.029282003471415 16.0354852930522 0.0 -0.09825148137537872 0.0007800298486118836 0.0
233 2 6.86588298731129 19.369799066885513 0.0 -0.025879581581097662 -0.00888296220123765 0.0
234 1 4.483202677545787 11.85476062961144 0.0 -0.00882715700701235 0.0608584879092674 0.0
235 1 7.288874392548419 9.985297101641557 0.0 -0.015591849359338914 0.0019189504146312226 0.0
236 1 6.786653240745118 14.921649895827333 0.0 0.096867432210124 -0.0032804335398938043 0.0
237 2 0.4546251735697725 17.25201788261581 0.0 -0.10181415716275549 -0.0016137611437938828 0.0
238 2 5.963484210038049 18.463915433525372 0.0 -0.08239976008304313 -0.08896698395867264 0.0
239 1 14.2083871965646 14.546899429752543 0.0 -0.07471470805642111 0.034076745031268896 0.0
240 1 3.6562096033744687 2.3666007612863176 0.0 -0.0025727859085783534 0.03029838470740594 0.0
241 1 10.904386338540784 16.67410975454652 0.0 0.03924692880682083 -0.03993891678928794 0.0
242 2 7.962961984277212 5.968369853709265 0.0 0.023468588218848684 0.02931623932812049 0.0
243 1 7.615156856472348 3.719669650974618 0.0 -0.08893999020896325 0.09575804265691698 0.0
244 2 3.6389762944529513 5.813671199502613 0.0 -0.04461987358905627 -0.039082080258666704 0.0
245 2 8.808789200349802 9.233663690272707 0.0 0.06268685304032921 0.0162436124213515 0.0
246 2 11.496083191881231 9.20263668219493 0.0 0.04023793251289003 0.0015023392349962257 0.0
247 1 4.4595966738002755 10.093469924193307 0.0 0.17269184352708938 -0.030979582322934945 0.0
248 2 1.507494011307377 5.6145596006683345 0.0 0.041145498361000246 0.02591481033998369 0.0
249 2 7.525718313085069 7.12992780339644 0.0 -0.0896608025271908 0.023161813855849228 0.0
250 2 16.806552827854404 0.18836391505223143 0.0 -0.05146672819367724 -0.07136501423560833 0.0
251 1 17.701613592681923 14.085117314650319 0.0 -0.02769657518240946 0.047205473535532144 0.0
252 2 0.9289177570697463 3.287383446615126 0.0 -0.019447823320037808 -0.0647477841957887 0.0
253 1 5.508538408172229 10.34393599044161 0.0 -0.014090013693681357 0.07510162593565385 0.0
254 1 16.073596355829505 7.324056408018141 0.0 -0.06209771624040176 0.1495727092172779 0.0
255 1 18.486224522819015 12.039231586852456 0.0 -0.023090462394871853 0.07443331597692454 0.0
256 2 11.877432774498237 5.674350765552732 0.0 -0.04740332113559252 0.0038185103905417107 0.0
257 1 14.4805729415927 13.896072281869296 0.0 0.02691392519889639 -0.05600872301283873 0.0
258 2 1.9963022011615776 0.6285676069451163 0.0 -0.027663423906956162 0.00010111383420377829 0.0
259 2 15.248481830783005 6.654628388012632 0.0 -0.078201839537806 -0.018527762318371315 0.0
260 2 2.857134988050323 13.361807293554193 0.0 0.009716764317160252 -0.10352233626021415 0.0
261 2 14.22318505780409 3.397662111394502 0.0 -0.01785697227230269 0.042653739616895316 0.0
262 1 5.049674453643769 15.825810757865744 0.0 -0.05895388667666605 -0.10140854964763203 0.0
263 2 1.2397603782838855 1.7395454581055174 0.0 -0.06019283047519434 0.05492707734095287 0.0
264 2 2.5332613212514827 6.435635025797482 0.0 0.046482570479027804 -0.048539350806871495 0.0
265 1 5.719406944764065 14.139922597461597 0.0 -0.018510760898613105 -0.09001616235591765 0.0
266 2 8.90037499032404 11.319913582696056 0.0 -0.016305999833642212 0.02206384406182063 0.0
267 2 16.90790858604499 13.366362403042546 0.0 0.018519667889372385 0.1320920641554666 0.0
268 1 16.299277110253147 16.337754934343522 0.0 -0.06173802839005447 -0.08624062419405955 0.0
269 2 19.656416175762963 2.6109402872952727 0.0 0.04587757892123548 -0.09660366740129359 0.0
270 2 6.385126967079651 6.741523710191099 0.0 -0.0891226209770999 0.09096155096970018 0.0
271 2 10.590489072481502 5.737832773939716 0.0 0.02992341065185779 0.02364612857339573 0.0
272 1 6.533223403495711 9.877782606335533 0.0 -0.049806251681761546 -0.14044448150400962 0.0
273 2 12.541564938841711 6.810379513604066 0.0 0.042702536731028126 0.04082590844611761 0.0
274 2 7.775024481990751 14.51065232339945 0.0 0.016566726475178466 0.052959734537331465 0.0
275 1 6.125710109665155 17.40042787408855 0.0 0.10870057868997227 0.0151401310269623 0.0
276 1 17.098893055011338 14.449135208306627 0.0 0.03367939189599289 0.002776594133288174 0.0
277 1 4.141722604826149 6.747250978276266 0.0 0.12496815062799387 0.038787334136260614 0.0
278 2 9.846757865546678 14.55554777482632 0.0 0.062043295135991744 0.04736650095739212 0.0
279 1 12.385906731987571 9.88806305036145 0.0 0.02020438662370216 -0.12199248640564204 0.0
280 2 14.64858023193792 0.022500988697572156 0.0 0.03872098223619045 -0.06698483491538583 0.0
281 2 16.580774536496445 6.381459286020701 0.0 -0.043666148859041645 -0.02286729093596772 0.0
282 1 1.392415122286828 9.272610589164781 0.0 0.09010228884286321 0.08960294749665869 0.0
283 2 12.219480206230068 0.24228139994555095 0.0 0.039240329212273155 0.006701943750039897 0.0
284 2 6.456874627340705 4.015693765690819 0.0 0.013271492896894756 -0.00798676338222615 0.0
285 2 16.33904110577275 11.465731938759035 0.0 -0.07983032771985282 -0.023407708559719898 0.0
286 2 1.6444334057723988 12.97921449294807 0.0 0.05846667157114909 0.07341719645023106 0.0
287 1 13.076996249815007 12.049618673100857 0.0 -0.1927297638022201 0.024080101307551994 0.0
288 1 3.1324711190745664 0.6776253102016616 0.0 0.0001954092772242399 0.06049097471083703 0.0
289 1 18.916996076419665 13.791070163236796 0.0 0.09979899353778754 -0.06259614392491873 0.0
290 1 18.033063885917482 10.733459384105691 0.0 -0.022188239084391815 -0.08250655599191169 0.0
291 1 10.398753730332928 17.230698842309657 0.0 0.010535225562994488 -0.07455057962731616 0.0
292 2 19.4591018599974 8.694088591593326 0.0 0.05050091565115636 0.01405361694108864 0.0
293 1 18.372330065190784 8.8919517761877 0.0 -0.05536469820655401 0.00579670458857973 0.0
294 1 4.519869178462084 9.424304040623554 0.0 0.044585089385197514 -0.06842806986537893 0.0
295 1 10.331846391113332 0.4543830205243349 0.0 0.07656728079845516 -0.03351987679806736 0.0
296 1 15.28539489705124 0.8994231026886219 0.0 -0.0948323868068091 0.056653464163612416 0.0
297 1 0.7205552326089361 9.341822111664554 0.0 -0.024022357015995307 0.03407325130300538 0.0
298 1 15.014892884315062 12.6837488073444 0.0 0.007261507119629246 0.012764283339799254 0.0
299 2 3.2987083530806016 7.439325269903609 0.0 0.07562128092380144 0.042516910210549076 0.0
300 2 12.034893216691462 17.91461680633932 0.0 0.04295993027282349 0.02346705138142126 0.0
301 2 18.933197652689437 17.577175732412524 0.0 -0.009269315747875167 0.05060393119699306 0.0
302 2 3.417243410904583 18.76044130683484 0.0 -0.10468064794533508 0.011611656768054522 0.0
303 2 3.972379537802262 1.3619964886998033 0.0 0.01568874746713824 -0.015887045941744164 0.0
304 2 5.197810852917459 6.558723910868789 0.0 -0.007181339232841038 0.05026838814488803 0.0
305 2 8.664613155737147 4.950499503416425 0.0 -0.03615770749247299 -0.08736026909642494 0.0
306 2 8.372384032116353 12.483328329526099 0.0 0.05682027801306025 0.03329219074794216 0.0
307 2 8.70683885414705 0.040352289927906355 0.0 0.050352085580966904 0.024785298399964843 0.0
308 1 6.9508231629245865 8.057774471121347 0.0 0.005911982222687591 -0.046746202958691994 0.0
309 2 12.697662528934226 10.975715634375574 0.0 0.015143941615324431 0.0662300968308205 0.0
310 1 6.710502836603747 14.260260657897165 0.0 -0.055964739901814234 0.20442228827184608 0.0
311 2 4.059242407275109 3.3674501448166234 0.0 0.10048403978977805 0.05968119894808424 0.0
312 1 5.669908236837372 7.59834026927386 0.0 -0.06636215506617202 0.0017272508698572826 0.0
313 1 5.835344023032862 4.940683234622875 0.0 0.10474919498461699 -0.06348499565416399 0.0
314 2 10.161855722842107 11.345614639906627 0.0 0.09721584803747198 -0.04993235496996373 0.0
315 2 9.50285259205604 13.319885546014145 0.0 -0.04280571821449111 -0.07686937385452122 0.0
316 1 12.92249208612316 4.339441812500669 0.0 -0.02790526249824445 -0.16729424053280637 0.0
317 2 10.570581128384998 12.53088441730334 0.0 -0.03627221804818573 -0.02316533435614842 0.0
318 2 2.6518955715764707 5.062049925232007 0.0 -0.11594059830736268 -0.0023375225192352957 0.0
319 1 15.564221750564968 7.753117656483905 0.0 -0.06921475714799963 0.018081438853000946 0.0
320 2 10.898616036311397 8.063370112210238 0.0 0.021281977717749624 -0.05788960077398547 0.0
321 1 13.57760221164569 11.637716818169958 0.0 0.04554052580716201 8.052476189917033e-5 0.0
322 1 0.20929110321832617 0.3175346504991621 0.0 -0.07805642888852574 -0.07053575621148651 0.0