ITEM: TIMESTEP
0
ITEM: NUMBER OF ATOMS
400
ITEM: BOX BOUNDS xy xz yz pp pp pp
0.0 19.7609 0.0
0.0 19.7609 0.0
0.0 10.0 0.0
ITEM: ATOMS id type x y z vx vy vz
1 1 5.570766645235767 4.507663200679463 0.0 0.045970284564032744 -0.018021561268971167 0.0
2 2 5.344731194724225 8.330930710876604 0.0 0.009119090625944848 0.002660306366372392 0.0
3 1 0.0735977972806155 3.921484963173605 0.0 0.15841372251690528 0.12780819631579102 0.0
4 1 18.530506195097782 4.388013892613758 0.0 -0.04571610543448379 0.05564707336743948 0.0
5 1 13.560963579828083 13.574312322237004 0.0 0.12320523424774103 0.08893700777849159 0.0
6 2 19.43712208255763 0.7856369783012537 0.0 -0.08077457826368419 0.045420707335552264 0.0
7 2 7.710351966303574 4.41183228038936 0.0 -0.10063951005115489 -0.0417055052237627 0.0
8 1 15.668897544213996 8.940512221885157 0.0 -0.09432336929621125 -0.148650740385692 0.0
9 2 4.884670458073047 0.4967735349291655 0.0 0.04133476945161155 0.028761184841638983 0.0
10 1 6.18076534989976 15.661254422492688 0.0 -0.0003342288746167714 0.05889013358083271 0.0
11 2 18.378040684006006 1.5029266963324814 0.0 0.16905119265276844 -0.03976612977995269 0.0
12 1 1.3246011204719228 10.998942902701978 0.0 0.005553318510723319 -0.07178451606913308 0.0
13 2 5.637241407200628 9.667087362901558 0.0 0.010914523857482246 -0.01945326722533801 0.0
14 2 11.307100562602985 4.568494467296702 0.0 0.10489145715410655 -0.011116520287758645 0.0
15 2 17.681379394001123 13.840377334933077 0.0 -0.09610728458419374 0.08890287177339942 0.0
16 1 5.910875985423761 5.112686639898811 0.0 0.05412921656167249 0.08929791174759215 0.0
17 1 6.391678874274437 16.29246263149433 0.0 -0.013425263454736063 0.025407266155597175 0.0
18 2 19.09504787292636 13.887074990631664 0.0 -0.11923613131969071 0.0973008729353465 0.0
19 1 10.05956227860062 9.335683604120401 0.0 -0.08996411591688604 0.023588710440433078 0.0
20 1 13.098692043863453 14.100505745405263 0.0 0.08509210141331887 -0.004694493594844553 0.0
21 1 15.682932219600838 1.8366051227680293 0.0 -0.040673997376135786 -0.06418897830914272 0.0
22 2 4.037002048007259 16.660496954723868 0.0 -0.018129954288616794 0.034783465914105326 0.0
23 1 12.694555161096996 17.737974570547117 0.0 -0.07227142455054748 -0.03545481572999812 0.0
24 1 19.31860323126652 3.5311716767423387 0.0 -0.0020034822732673866 -0.005787148956022282 0.0
25 1 17.51797688055347 12.130451761413422 0.0 0.055928808764787195 -0.07191968247254278 0.0
26 1 13.039442874807461 17.200386455734368 0.0 0.12573981873777307 0.023084443099631508 0.0
27 1 0.3812268546330427 11.90375561515182 0.0 -0.1405276240844897 -0.13841132595444292 0.0
28 1 14.104638984968489 16.579074095327975 0.0 -0.028281077490184634 -0.08292488925765104 0.0
29 2 8.601301005770196 11.14111090103117 0.0 -0.059285774377323915 0.006728482605662751 0.0
30 1 2.25884105111779 14.099515996400582 0.0 -0.0075316088498049135 0.019430892875473664 0.0
31 1 5.244225882033285 14.738057419864692 0.0 0.0025407897585035637 -0.046806347371722186 0.0
32 2 11.780202083926422 1.3917888077786522 0.0 0.06848276163537464 -0.00746685868174465 0.0
33 1 4.939184216727593 4.21939966125835 0.0 -0.13548572190404423 -0.06294245194818418 0.0
34 1 12.833036384046835 4.711487770590938 0.0 0.04412631332006188 -0.01350630923046731 0.0
35 1 2.360272056153333 2.922575349445865 0.0 -0.15156604631782056 -0.03444447433476431 0.0
36 2 7.409709705125506 11.498168529672387 0.0 0.003388033641177801 0.07545262579733862 0.0
37 1 8.849183629883232 4.493273823513333 0.0 -0.08573859638887625 -0.06857280330974311 0.0
38 2 17.385598697370654 17.862887678755037 0.0 -0.021609305061122658 0.0365631469330993 0.0
39 2 18.51715265753581 12.600194557338195 0.0 0.039738761095507856 0.08309000474873633 0.0
40 1 2.389543251677253 7.797475393011011 0.0 0.10096743874707567 -0.02208019432028214 0.0
41 2 10.356037919630268 8.286704175917482 0.0 0.035865709104957094 -0.005543720125568132 0.0
42 1 1.278211483330009 15.83232120815583 0.0 0.010520861473137596 0.0008829800904604804 0.0
43 1 16.563503843112684 4.7133086993183015 0.0 0.1377129627398806 0.06327949808863464 0.0
44 2 6.59073805168492 6.602714338292481 0.0 -0.038978434416324294 0.08078369054006054 0.0
45 1 19.192064726893403 4.214684133597837 0.0 -0.06632223153458638 -0.07256527030281025 0.0
46 1 1.8990246203588508 4.8891598106868175 0.0 -0.01528275620463456 -0.06388958883965432 0.0
47 2 3.4401832358997817 7.3860101794690385 0.0 -0.06957719425030279 0.06260806067912233 0.0
48 2 7.666251474319201 8.06011352682643 0.0 0.022268261146538192 0.04824980089143609 0.0
49 1 14.863333062216208 3.8201353589581775 0.0 0.01831873611271317 0.0784955517238307 0.0
50 2 16.601439329523583 6.545276941325808 0.0 -0.01700099272036743 0.0514116880977697 0.0
51 1 6.134160978002049 16.908104266966916 0.0 0.1672451200776195 0.13085596659119378 0.0
52 2 4.162249035131418 1.5235074749636517 0.0 -0.034825915965853986 0.03441100047254317 0.0
53 2 6.0913176016618555 0.845984841012327 0.0 0.0028920594758675487 0.09017194557456132 0.0
54 1 8.219957219098971 19.576175621406083 0.0 -0.002952098017555783 0.06874291743749515 0.0
55 1 5.3425056528228225 3.7006492419546153 0.0 -0.10276007286267475 -0.04035762023574557 0.0
56 1 5.968902279271756 3.9805584734033594 0.0 0.03440222809270528 0.11334855913638765 0.0
57 1 0.9315625236044438 10.439614975514862 0.0 -0.08932240723358954 -0.06779588749098515 0.0
58 2 14.314461220852623 14.351654173123945 0.0 0.12070155371372238 -0.09639370675984886 0.0
59 2 17.172810465098358 1.0032202699670136 0.0 -0.027899834623730076 -0.04439921824873331 0.0
60 1 19.46876336556899 2.897128305212195 0.0 -0.02842418982485949 0.03281966285696778 0.0
61 2 18.452303367765897 5.48854514635946 0.0 -0.019295721566496504 0.03745267032603276 0.0
62 1 5.054657116865324 16.343497177641435 0.0 -0.02599776829061866 -0.027107441235069415 0.0
63 1 17.87516407778631 4.545531786486008 0.0 -0.0423127180011761 0.04674889469427503 0.0
64 2 18.235159124098868 0.23509375272827993 0.0 -0.04570483074920866 -0.04407187903649535 0.0
65 1 19.425293703762055 5.97727712578936 0.0 0.027792110061099374 0.1373865171046026 0.0
66 2 8.034194155526462 14.720583194643854 0.0 -0.023630419506405393 -0.01665770948517425 0.0
67 1 10.617148129065587 18.310829660830343 0.0 -0.01562600754691161 0.0027708433104769743 0.0
68 2 12.939883060020914 7.725107736411973 0.0 0.15450247547771362 0.024907479333266248 0.0
69 2 11.461606703136063 12.63012935880425 0.0 -0.0035495031898186142 -0.032151611079041416 0.0
70 1 17.70393954804941 14.947705486497163 0.0 0.029573134375959136 -0.014872300797652697 0.0
71 1 13.094603688718824 2.980146171442456 0.0 0.11317213994137258 -0.07452620363035445 0.0
72 1 10.031889224573867 0.5150957957092273 0.0 -0.08808709373841941 0.07757319315124846 0.0
73 1 1.7839467521929684 14.585486215038632 0.0 0.09677056895716843 -0.09434545149483964 0.0
74 1 11.886324036843842 7.786000613588322 0.0 -0.06660378583376364 0.057336415228717644 0.0
75 2 16.305418841442158 0.13488434638747215 0.0 -0.0727169533445682 -0.024464097044287703 0.0
76 1 4.925860126554198 18.545213757465643 0.0 0.22177019926776442 0.03941305836057067 0.0
77 1 12.948914176091234 5.4310121675902945 0.0 -0.023922980915326672 0.008317008049042915 0.0
78 2 14.209809611466833 2.8580226600336327 0.0 0.010692624588163686 -0.10141537533308011 0.0
79 1 10.593192927643083 14.827519827074491 0.0 -0.016615664607812483 -0.04110110594278764 0.0
80 2 18.34003577908609 15.877385019360666 0.0 -0.03421945581885977 0.06858740813458776 0.0
81 1 10.321092074105609 11.348971444526974 0.0 -0.1040376072400746 -0.1319731268994093 0.0
82 2 4.375580462901743 15.444721686047743 0.0 0.02920228181537767 0.006327825565925401 0.0
83 1 13.635994019467207 5.619401387191236 0.0 0.13474293513125427 -0.06861480490391318 0.0
84 2 12.258932168654098 15.086782891476856 0.0 -0.032441204799653046 0.13514731880138187 0.0
85 1 14.014288099500522 7.429090233157836 0.0 -0.08548744520267318 -0.14719716532571323 0.0
86 1 9.488428256633414 8.964980432568858 0.0 0.04959347308470162 0.06477164764061183 0.0
87 1 6.3833336421660345 19.55602165800998 0.0 0.0006321391474605376 0.17518965643896878 0.0
88 2 6.539124366499278 10.5847038279776 0.0 0.04997269109079968 -0.010639994089742644 0.0
89 1 12.286976789386662 5.10604476460264 0.0 0.1008815628945488 0.04697258126515469 0.0
90 2 1.7095025400597674 19.50015567238012 0.0 0.03538456953480719 0.018153733252890762 0.0
91 2 4.291330937095038 12.919627125195124 0.0 -0.05646817650005492 0.024625715560604097 0.0
92 1 12.378927502778291 17.115786557172783 0.0 0.08285714273915636 -0.028454034087244156 0.0
93 1 16.070506650693265 1.2411166269970977 0.0 0.03238273854015855 -0.15095287880969085 0.0
94 1 11.1592837895854 15.297419968871376 0.0 -0.0742291641368002 0.055167540638753586 0.0
95 2 16.250276443398608 17.296108945293838 0.0 -0.05296291181287346 -0.09507209374301862 0.0
96 2 11.804903805551882 6.686424780522569 0.0 -0.050740236745448045 -0.007048913941174407 0.0
97 1 3.8341858123799537 2.53876909382582 0.0 -0.11449231826078426 0.1011644483755228 0.0
98 2 10.748639862906018 2.042708760665762 0.0 -0.06035901367135052 -0.06827428847226427 0.0
99 1 16.664897701377207 4.0050027328754965 0.0 0.025827426468340398 0.04905115354206728 0.0
100 1 17.688216755275413 6.3119377081358365 0.0 0.049670804437244684 -0.09737180691131843 0.0
101 1 12.43193344730717 4.172459005045116 0.0 -0.053159783306038835 -0.13029587094106415 0.0
102 1 4.448188618131039 3.7049193209508897 0.0 0.012239740356838136 0.10559316441541124 0.0
103 1 2.3282974033211694 5.406346665443743 0.0 -0.04896310752959349 0.09331976117368893 0.0
104 2 12.033977663714985 10.204382956391203 0.0 0.0493170785543449 0.02132836707513473 0.0
105 1 1.7565790446110872 5.745493644175577 0.0 0.054024958652444305 0.038500265137970044 0.0
106 1 8.897626067376438 19.603625057445566 0.0 0.02879095319300837 -0.09008771180469152 0.0
107 1 2.169764525585511 3.5985358532513803 0.0 -0.03027525751270952 -0.14854320451537012 0.0
108 2 16.60686989490164 14.705631749348324 0.0 -0.09972286351900236 0.007069103284464116 0.0
109 1 11.975818252885851 3.6820284482575762 0.0 0.012523209072622138 0.04768228743003958 0.0
110 2 14.720547913202605 10.691924994135107 0.0 0.03033892091880878 -0.006684965419629537 0.0
111 1 14.131649689220247 6.085482648646741 0.0 0.14038817237251727 -0.07868187323799324 0.0
112 1 11.237056477054482 7.63458167801949 0.0 0.060215504486489185 -0.04379625872929389 0.0
113 1 5.721345910959363 19.566681957524818 0.0 -0.12701489749287992 0.09294919313769358 0.0
114 1 1.616795818145906 13.907675155587908 0.0 -0.017518731317061467 -0.13394596020604568 0.0
115 1 8.328368846672388 7.191398010344974 0.0 -0.031640386512632825 -0.06257636454042319 0.0
116 2 18.411057836577257 18.63470378205246 0.0 0.043157463192453824 -0.024369064865310295 0.0
117 2 9.454351159922433 12.0540103065525 0.0 0.018450686418726162 0.04004995932258454 0.0
118 1 6.570562388765724 12.251634172943918 0.0 0.12144220338746171 0.16286661215614917 0.0
119 1 10.905234911798134 10.363301303250651 0.0 -0.04657922894066996 -0.017401050351265254 0.0
120 2 8.65056139840319 3.4241745034819986 0.0 -0.049331197560991254 -0.008073259572667097 0.0
121 2 10.613888383167197 17.17156049196094 0.0 0.026581584456469864 -0.08858001749954232 0.0
122 1 1.9448627328463797 15.777706641255977 0.0 -0.06318733258170456 0.01011035933611896 0.0
123 2 9.237308520270666 6.51318988213135 0.0 -0.011971835057265439 -0.07279112354701495 0.0
124 2 18.230303156644137 8.59577065641984 0.0 -0.009020215600146798 0.04139529820779512 0.0
125 2 3.5685863482450326 5.259986431335319 0.0 -0.021848245437203775 0.004763118124047754 0.0
126 2 3.012156397642512 17.342715349336046 0.0 -0.02188078708948051 0.04659454555783455 0.0
127 2 3.1692913261980746 12.288622477394195 0.0 0.04844291818093509 0.019568206743155077 0.0
128 2 18.832909128716203 17.43581245889716 0.0 0.03458807800827455 -0.02643331633839605 0.0
129 2 10.746340905677883 5.8556135815353825 0.0 -0.03280688312351678 0.15137093085848705 0.0
130 1 1.5056930408317541 11.709474381710828 0.0 0.056570616880890164 0.11050847637600449 0.0
131 1 4.275594226589239 18.398662363343206 0.0 0.0650260996455942 -0.023784989365729585 0.0
132 1 13.258697180870332 2.3023482487900853 0.0 -0.010025001819688191 0.053938465675013404 0.0
133 2 2.100909419915475 8.861267695791659 0.0 -0.008759298300775124 0.10384806651637594 0.0
134 2 0.08061445456523672 7.210785969536832 0.0 0.051418834303499375 -0.07725358985315024 0.0
135 2 15.203978055610063 16.527811566484257 0.0 0.08904568917275417 -0.07545263018773567 0.0
136 1 1.0079055512109627 12.195490504139904 0.0 0.04559266317040818 0.021464163732955496 0.0
137 2 9.892558008849896 4.067703890989536 0.0 -0.03298518887775669 -0.01623990311485633 0.0
138 1 18.974265162237998 6.458478537489295 0.0 0.01930917611816529 -0.11619492601976204 0.0
139 1 12.26400590363725 18.892804744667092 0.0 0.06132530741956937 -0.11474876964678171 0.0
140 2 11.98308107176204 13.835781308485423 0.0 -0.01574338563888135 -0.0009569173719544709 0.0
141 2 19.073264620515157 10.541418577540568 0.0 -0.006245914874965523 0.04893005369688082 0.0
142 2 11.43108129765591 11.343756916081242 0.0 -0.07220797766922663 0.006377012672784209 0.0
143 1 6.966033671632904 0.12628447476373145 0.0 0.025254976392440086 -0.08293142250961798 0.0
144 1 10.553409405456293 11.994810690899968 0.0 -0.09108716699914596 0.007780577937691504 0.0
145 1 1.513737628116785 15.218974224568036 0.0 0.05327296511687503 -0.04509856927367705 0.0
146 2 13.66607229879551 3.94945006482668 0.0 -0.006422842128739236 0.0270136632110022 0.0
147 2 8.354351555008122 5.476466848526263 0.0 0.11182377334621463 0.015660769389398737 0.0
148 2 5.371067577679858 11.020588239755389 0.0 -0.057818851742092656 0.04166297794869696 0.0
149 2 7.735259527301278 10.130108152013026 0.0 -0.026443135453462156 0.00877385910412453 0.0
150 2 4.19698010915994 6.410131049851424 0.0 0.07766425077216906 -0.060209713374209425 0.0
151 2 13.14286087948228 6.549634483912052 0.0 -0.021401120108796322 0.02302136638058154 0.0
152 1 1.083191297251541 13.494120035645947 0.0 -0.08191320639556704 0.10014965001183501 0.0
153 2 14.832811933778471 11.929336702034211 0.0 -0.04577647943435009 0.07713039884222753 0.0
154 2 0.5389655117596209 17.322496534531822 0.0 -0.03268023260553258 0.023401041131836203 0.0
155 1 4.267024502000706 8.119160865002984 0.0 0.09307288047000122 -0.018549031689160944 0.0
156 1 4.0354559907973275 19.567311092037556 0.0 -0.13259402680851246 0.1381876078564182 0.0
157 2 19.501976708200665 16.346934444099134 0.0 -0.08439149211131898 0.037157112496568154 0.0
158 2 14.505237044434734 4.960072328572836 0.0 0.04560533284679219 -0.0771556720884783 0.0
159 1 18.767492100824995 7.088505442451215 0.0 -0.05271985460084071 -0.07521154610106733 0.0
160 1 15.348039296910109 2.484687198407559 0.0 0.04627229803733696 0.05064587198610807 0.0
161 2 0.9263238836605147 9.287254719356461 0.0 0.11805770910926973 0.08122310748261193 0.0
162 1 10.313491096375914 10.668740584109704 0.0 0.08559328365444754 0.03763294786994008 0.0
163 2 11.6437668722828 17.973628097277718 0.0 -0.06617534923854107 0.015258832781396336 0.0
164 1 17.451260544063395 12.780682465218216 0.0 -0.11973333758642757 -0.00833932246718773 0.0
165 2 7.271802020737329 16.958896501396623 0.0 0.0038318402148226887 -0.03961367181147507 0.0
166 1 19.713885071004942 11.40516090860793 0.0 -0.02115798370283665 0.07493095914193174 0.0
167 2 11.61484185162657 16.306567583815728 0.0 0.05087157910730413 -0.0027051877964280567 0.0
168 1 12.941748926610565 13.369789830999286 0.0 -0.0793262849867926 0.016674656573648843 0.0
169 1 16.921188534198155 7.599322202466733 0.0 0.20432294506256324 -0.01418208409226069 0.0
170 1 10.377842616334203 12.647008209489865 0.0 0.04420378233049939 -0.10694186572445291 0.0
171 1 5.775286452891282 1.9316418198468508 0.0 0.04740089430274583 0.03627165757155467 0.0
172 1 16.850885663062108 13.034528740011293 0.0 -0.041690375582265 -0.02223982513015076 0.0
173 2 8.460858733146388 0.8919358479872488 0.0 0.00334670525773067 -0.0003840661786952509 0.0
174 1 14.797897210145123 6.029444108049664 0.0 0.11443490935115146 -0.0345890125696232 0.0
175 2 15.364954102793861 15.233997439180762 0.0 -0.057631686565643124 0.032958670059489936 0.0
176 2 10.936719038026254 3.3152013921621366 0.0 0.0099912766315812 -0.036637297437649624 0.0
177 1 18.353330473479915 14.733775398772503 0.0 0.1433186160498168 0.025627616790410333 0.0
178 1 19.06551493002431 11.652531573641726 0.0 -0.14770831122478548 -0.1161244251024421 0.0
179 2 6.033060263113111 18.529602758220342 0.0 -0.0024019908544454325 -0.022203968929578672 0.0
180 2 4.937413530519089 2.6646171485668217 0.0 -0.01160468618247248 -0.04969355035061807 0.0
181 1 16.869829011773113 12.32810418402201 0.0 0.034887499947288014 0.055631100032932125 0.0
182 2 1.6026016845826139 2.045910329533735 0.0 0.05082228819417089 0.0239371948486252 0.0
183 1 0.9631306326319482 2.970907577844466 0.0 -0.08639195527460965 -0.003579089816246484 0.0
184 1 7.629899449287153 19.238937131782915 0.0 -0.12211585349005195 -0.05604001474663529 0.0
185 1 6.7627608995984225 9.520680037813328 0.0 0.01079334636115972 0.0065321541681310534 0.0
186 1 19.661890787903644 9.631871133228097 0.0 -0.04068596515089665 -0.000667694435553898 0.0
187 1 15.587783538943098 3.7210612703964685 0.0 0.027098631895737905 0.061613303507730276 0.0
188 1 12.38904130523971 5.771336864308726 0.0 -0.014761676827337328 0.0017484855232223562 0.0
189 2 4.848018776924641 5.328908667087131 0.0 -0.017702029013807293 -0.0368696156903902 0.0
190 1 17.040510379078327 11.659823755814674 0.0 -0.09694768058649134 0.0036505027398449565 0.0
191 2 2.8982852101821153 1.9249857914019106 0.0 -0.029286008533336745 -0.02581126833569653 0.0
192 2 14.672583041104886 19.181879299555 0.0 -0.07681153943742139 -0.009425526109551708 0.0
193 1 8.56377288558245 13.778077530511178 0.0 0.0053953876883936925 -0.011600683174365372 0.0
194 1 11.178534469749968 19.6079344414655 0.0 -0.11539509220742009 -0.11758237132526984 0.0
195 2 15.116897614081918 17.94236218925476 0.0 -0.053989330027323444 0.029280619732543096 0.0
196 1 0.34094189711703815 12.555997727422017 0.0 -0.028599654039206855 0.012697957245233333 0.0
197 1 17.229895914902855 8.211859572069475 0.0 0.11155015975833898 0.10231964269224991 0.0
198 2 16.36809817120255 16.03232238961729 0.0 0.02474441937048066 -0.030498667573604313 0.0
199 2 8.276673237937306 12.60133111350538 0.0 -0.0021367590795110095 0.0822872899254588 0.0
200 1 5.243023901170393 1.555816823077846 0.0 -0.10019300600488887 0.06150652935010647 0.0
201 2 14.581035104216582 1.699226961391841 0.0 -0.09664824184070994 -0.04549675185656197 0.0
202 2 9.626990630865613 5.298452185200942 0.0 -0.03423832554659067 -0.0656473374393392 0.0
203 2 9.501343338041437 13.281319374512309 0.0 0.0034160583548658962 -0.02639979925387359 0.0
204 1 11.771520404802411 5.551006202423428 0.0 -0.01590810816305362 0.00975517303537875 0.0
205 2 9.347126913132284 16.778530962510715 0.0 -0.013448763182501456 0.022617306359716316 0.0
206 1 17.187762219558596 4.440264472179928 0.0 0.07888986581968539 0.14728167126974637 0.0
207 1 7.259976997965649 9.075944355185515 0.0 -0.05964145516765795 -0.04481716893765348 0.0
208 2 14.1393459905905 15.527976110005858 0.0 -0.08105984155146245 -0.04020612916825205 0.0
209 1 0.31830408488853773 10.195866919426772 0.0 0.08029516687256817 -0.24215329751792963 0.0
210 1 3.9763681810538802 3.1894059923818405 0.0 -0.029378395450531506 0.1560471756083421 0.0
211 1 4.535599734170288 7.506256258301985 0.0 0.06126864741315762 -0.1290036603861336 0.0
212 1 13.482733786277384 1.627995164682391 0.0 -0.031075826762656803 0.03854790209977023 0.0
213 2 3.0573772604561547 11.058389002998416 0.0 -0.03347064553715759 -0.0065710215013944605 0.0
214 1 8.341497711826166 17.365322770800546 0.0 -0.014521778962725357 0.028502277548433087 0.0
215 1 17.232359376502373 16.734576203863288 0.0 -0.015073699167787629 -0.03930822831707286 0.0
216 1 12.924281403919851 10.814197091683901 0.0 0.04201523747633256 -0.12578088684663272 0.0
217 1 0.8220258572366879 16.28278627691878 0.0 -0.0146495126664446 0.06271142735910462 0.0
218 1 7.1636094311984015 12.58033936995417 0.0 0.029095530129731956 0.0021930081915240754 0.0
219 1 12.43509355739061 12.06685938812538 0.0 0.13045947052564674 0.07926593854950836 0.0
220 1 12.52244019038393 11.371140413913993 0.0 -0.05634609126152555 -0.022661107340883554 0.0
221 2 2.177917722405341 0.893646287349635 0.0 -0.0033013625396272313 0.03446383602989486 0.0
222 2 10.215483319445694 15.867462322032052 0.0 -0.0329671331539626 -0.05697453726771606 0.0
223 1 5.149263581071321 19.19382216640955 0.0 0.012354991219793195 -0.12310517514129915 0.0
224 1 15.24391279470726 3.1506225679362703 0.0 0.04960081655546752 0.01980480284418215 0.0
225 1 18.806583813053052 3.090530612953745 0.0 0.009797957800512687 0.023830344489582475 0.0
226 1 1.9669625989923125 11.180319009255435 0.0 -0.04689956398966862 0.10214552973259299 0.0
227 1 10.322026635919544 9.999209518251002 0.0 0.09591508410050582 0.04450959733192449 0.0
228 1 5.514433633583038 14.115609376780741 0.0 0.01872245110169018 0.026896131266167224 0.0
229 2 2.946406430940175 19.58711062477334 0.0 0.017903254343122194 0.10090248957412544 0.0
230 1 3.273602998360256 0.8870479124422241 0.0 0.054780765394637894 0.04774988170820942 0.0
231 1 6.950643892579344 19.210796394298015 0.0 0.12862380172004678 0.02606006530785056 0.0
232 2 2.4966151424768857 18.442892856376726 0.0 -0.06966185328646834 0.0374812904272268 0.0
233 2 19.661811829569533 18.40465004244815 0.0 -0.036250609432721306 0.03328020514902911 0.0
234 1 6.312606483634909 11.636596710158917 0.0 -0.13359198130045352 -0.006745460689944339 0.0
235 1 10.601225166606834 0.1930576177667766 0.0 -0.008016684044007866 -0.004994900763070484 0.0
236 1 2.7213454976929303 16.315218678896414 0.0 0.21329970396501866 -0.09596500076526131 0.0
237 2 0.9355831701644914 0.921165451162116 0.0 0.012835659011316277 -0.00704429781724924 0.0
238 2 13.975532683365387 0.6020067011236487 0.0 -0.07181888063809605 -0.02237004338874184 0.0
239 1 3.5991802967650974 18.278158059851414 0.0 0.027992706183202543 0.1257663882536217 0.0
240 1 13.672370504743856 17.059152274419564 0.0 0.030265576231818445 -0.09158209367408775 0.0
241 1 6.3441500368938195 17.52744769489511 0.0 0.025886179755337285 -0.04184292769245544 0.0
242 2 12.760695207907691 0.7009355969028075 0.0 -0.04813812217332157 0.07136526818513347 0.0
243 1 0.429977900568557 10.909915631169394 0.0 -0.1620903035544481 0.010198841808390445 0.0
244 2 6.293666606706586 13.31565729904846 0.0 -0.1341026537808266 -0.07627426187332655 0.0
245 2 15.538716370958921 13.971691669675772 0.0 -0.00046732193591523846 0.003742222883817393 0.0
246 2 15.705633541990286 5.408778813436998 0.0 -0.04055583104986893 -0.024280506758928434 0.0
247 1 15.944829909963136 8.309362988885555 0.0 -0.018435637537075895 -0.05106992839866105 0.0
248 2 7.267439194131934 18.178562146635162 0.0 0.036534360378733505 0.00214701998702661 0.0
249 2 0.19437157817679415 5.010037487614966 0.0 0.05280028104886442 -0.05594956908804743 0.0
250 2 16.35094017344546 2.949554850034643 0.0 -0.0753058574942118 -0.03200248606887421 0.0
251 1 5.8659295045591335 5.783385939056095 0.0 -0.07833424212369872 0.05521222024401846 0.0
252 2 8.393606272397582 9.053717299053178 0.0 0.08080373191862794 -0.016659920732198723 0.0
253 1 6.464660842935603 1.886989925902898 0.0 -0.1253091150434048 0.13053165151083787 0.0
254 1 13.43513882302307 4.986756879133929 0.0 -0.04239773799933286 0.03600378636925494 0.0
255 1 3.2679763973621676 15.885111460087895 0.0 -0.058799804541591796 -0.08753561780455736 0.0
256 2 0.681407936838017 14.484823118853237 0.0 0.02162916366957859 0.031110136713098747 0.0
257 1 14.336075275874341 17.201389186547637 0.0 -0.12105585535772187 -0.1384832299182138 0.0
258 2 1.1445829604421642 8.004206365029637 0.0 0.021571481747956343 -0.015208247266108265 0.0
259 2 17.66979624824468 3.4649929287183006 0.0 -0.04872536357983547 -0.1005037381720016 0.0
260 2 14.879103171478482 8.128547063467366 0.0 0.06956008065110506 0.03939572169888535 0.0
261 2 6.960572141525912 5.414722324033875 0.0 0.08570447168695143 -0.06643397161643828 0.0
262 1 5.2176362308366295 13.491201060166956 0.0 -0.029113714856204516 -0.04896520579340465 0.0
263 2 4.327134518979005 14.162260401778628 0.0 -0.020136561583391933 -0.09624565823854399 0.0
264 2 16.949045732216916 10.554069554499943 0.0 0.033559894488875294 0.010996238054547003 0.0
265 1 3.806765021586036 0.47376158412594055 0.0 -0.07268548458621359 -0.029092814182603403 0.0
266 2 9.731968923151152 2.790929037904544 0.0 -0.0664095273687165 0.03187527525080493 0.0
267 2 10.709442437871536 13.70414742260203 0.0 -0.14224400799021752 -0.03874008971915106 0.0
268 1 0.9011870854441982 12.87022843401622 0.0 0.10279301514103559 -0.07870429439683566 0.0
269 2 4.28700619274315 11.680038987056852 0.0 0.07191094885990724 -0.07081281382841102 0.0
270 2 5.386401300149949 6.8231269556325955 0.0 0.04149113021946059 -0.07002912023867071 0.0
271 2 6.46586164669577 7.826711844415494 0.0 -0.06401234504617033 -0.09767397395858228 0.0
272 1 12.827943973468336 1.7833271916683076 0.0 -0.02805462253195496 -0.15045287237404967 0.0
273 2 15.320983996891831 6.967491113114267 0.0 0.08151251925903387 -0.029042446718873318 0.0
274 2 11.161950276539718 9.295624732079377 0.0 0.09201185350187786 0.0015589203352955356 0.0
275 1 12.693082304235942 18.395936555625894 0.0 -0.12852867163927165 -0.06394490900915696 0.0
276 1 16.039087137259397 4.2672275142375575 0.0 -0.012020054800604264 -0.04283070448008451 0.0
277 1 19.019526306741664 9.417134097528862 0.0 -0.011219220556408586 0.022137743819206687 0.0
278 2 13.742871346586439 8.612935350987751 0.0 0.020007866283056695 -0.07636415945337194 0.0
279 1 5.716923127711209 16.40758082249638 0.0 -0.0122220136809681 0.09739219282865377 0.0
280 2 18.048248365086916 11.197664302559904 0.0 0.11598135949607337 0.03923211301919662 0.0
281 2 1.9548416467936205 10.099717977185275 0.0 0.07291322905869112 -0.04299708682241602 0.0
282 1 19.52345142945438 12.168682189961245 0.0 -0.02838123953630671 -0.14656130700869124 0.0
283 2 9.504109671476954 14.528531427549064 0.0 -0.005644436359516018 0.04101353091480123 0.0
284 2 5.161392326234788 17.443080063457668 0.0 0.1047276768225075 0.05700002945888786 0.0
285 2 4.2419177422875975 10.443242165076215 0.0 0.01695626900278723 0.0013969787390042743 0.0
286 2 12.070796742386602 2.592161807335216 0.0 -0.05957357420349062 0.02702242422802616 0.0
287 1 2.574330627262742 4.807898138536908 0.0 -0.009918113921230435 0.03224350400637461 0.0
288 1 2.6016540487829967 15.67159351561328 0.0 0.0990341692993614 -0.15772925343063554 0.0
289 1 5.711716523667435 15.192841785214275 0.0 -0.019052997073013906 0.02428885055427113 0.0
290 1 17.428613638114115 5.067742591353286 0.0 0.1296013877263376 0.0864351950565846 0.0
291 1 19.5602225524113 12.910418356445533 0.0 0.015032223777830912 -0.019370317387293678 0.0
292 2 6.6137776167409354 14.59401009279785 0.0 -0.045533886890242535 0.05517228543605507 0.0
293 1 17.585019394589835 7.641051529946886 0.0 0.1009557474441557 0.0690976233743694 0.0
294 1 7.040452123759653 2.2187303218029677 0.0 0.21358406842967648 -0.002481695143716951 0.0
295 1 1.3075325694755537 5.209486967689818 0.0 0.03817620319198623 -0.08771838119097002 0.0
296 1 7.599458595606702 6.272585022044198 0.0 0.04041555214941997 -0.09205298007768942 0.0
297 1 11.740122245126798 0.26808170269037807 0.0 -0.12156529165361678 -0.04582719112598256 0.0
298 1 17.713165433780084 6.985883476302132 0.0 -0.10594233229546368 0.08016889690094135 0.0
299 2 10.349054977444785 7.0374373691464776 0.0 0.021197241499713772 0.00797504976182207 0.0
300 2 16.170373028082516 18.60771099139202 0.0 0.006024362895012845 0.028223036618545343 0.0
301 2 13.770004216858686 18.145129981604175 0.0 0.05322228987456595 0.06313988060761487 0.0
302 2 1.7478152761662247 6.874296861525203 0.0 0.057096694938038754 -0.0011691805747917653 0.0
303 2 13.287054597898685 19.30896216514401 0.0 0.046688515463179 -0.0044241765985419705 0.0
304 2 13.031621321148616 16.130664013244484 0.0 -0.05077779406644473 -0.09575995764765513 0.0
305 2 7.4811991778156655 13.623318984191933 0.0 0.043597068928204225 0.04423788944799732 0.0
306 2 9.144794227735579 7.896790991202933 0.0 -0.046935119793576376 0.058362274631433786 0.0
307 2 19.664207110288743 8.518301468473846 0.0 -0.01248205847960803 -0.05869753908318562 0.0
308 1 2.1806033514716447 15.136959861172619 0.0 0.059096515344476436 -0.13294100408162562 0.0
309 2 3.1850368833250005 13.527122276674337 0.0 -0.008692013692268026 -0.0236896445255994 0.0
310 1 7.637784057809203 0.14276704203313265 0.0 0.02681477752661768 -0.03817204018390359 0.0
311 2 8.183660069114387 2.175902438506314 0.0 -0.030228017348729944 -0.01723234836060149 0.0
312 1 18.376362311068 2.6008309678515853 0.0 -0.1970905142897103 -0.08031985637284524 0.0
313 1 7.6376389690566775 6.9664654638152905 0.0 0.032282776098947766 0.05169316178272579 0.0
314 2 15.801206113105572 10.043590889087207 0.0 0.05852880771490932 0.10492754811844536 0.0
315 2 9.566092409795885 17.968010653979764 0.0 0.027315255381081177 -0.007419858184124791 0.0
316 1 6.647987620067651 3.9807425111763233 0.0 0.04338384546311188 -0.031675647143715964 0.0
317 2 9.574629688236334 1.5022346694896256 0.0 -0.10264864834407574 -0.02217965796166109 0.0
318 2 0.3108920850577803 2.020528813103113 0.0 -0.0461702690846255 0.13544980592752798 0.0
319 1 19.01540962441629 2.3983445035078854 0.0 0.01207041665346677 -0.012751476581409786 0.0
320 2 1.1286062822433107 4.074407826883054 0.0 0.046049472114801135 0.004665960949912717 0.0
321 1 13.881047004437464 11.41794243113134 0.0 -0.05603095852371145 -0.053929466430684636 0.0
322 1 10.583601231966762 0.9322244219185338 0.0 -0.018849415280623557 0.09171182335302454 0.0
323 1 12.648210117657593 3.5273412878871824 0.0 -0.007441489341302934 0.07786235504811216 0.0