ITEM: TIMESTEP
0
ITEM: NUMBER OF ATOMS
400
ITEM: BOX BOUNDS xy xz yz pp pp pp
0.0 19.7609 0.0
0.0 19.7609 0.0
0.0 10.0 0.0
ITEM: ATOMS id type x y z vx vy vz
1 1 9.29201095049333 13.39085070079364 0.0 0.03175697530725581 0.1583026666722379 0.0
2 2 8.222683609247277 1.079997433408968 0.0 -0.016768925470969778 -0.05270285569993973 0.0
3 1 2.3697335487221363 4.366143998332439 0.0 0.11189940470114869 0.008468777307844809 0.0
4 1 9.119438496177857 15.353455924798077 0.0 -0.014509399943557905 -0.012936972266821131 0.0
5 1 11.207299553712318 13.623407918657733 0.0 -0.0004963072219458369 -0.09111253709858615 0.0
6 2 18.35992701173241 8.726454044196313 0.0 0.004417249734737617 -0.0458729824064879 0.0
7 2 7.418746917371947 8.421919546346587 0.0 0.009390447145245862 0.051108382723255415 0.0
8 1 12.428406494555311 5.073802379679127 0.0 0.029771749661984474 0.13951030423081162 0.0
9 2 8.240493237974889 11.319478515180869 0.0 -0.09221565673757233 0.007613851163178077 0.0
10 1 17.246284103896844 5.559045084149407 0.0 -0.08980318566423616 0.02854926378735903 0.0
11 2 5.199224219348808 16.8067697152702 0.0 -0.043455799453480284 0.057376864459623096 0.0
12 1 6.183383213909592 13.873204965438454 0.0 -0.13262916327378776 0.02976440754755694 0.0
13 2 15.05540997007509 6.476790118203275 0.0 -0.06978252525344834 0.023001417052562003 0.0
14 2 17.710738102515187 15.06942675976595 0.0 -0.02481833041489038 -0.11392865700010914 0.0
15 2 6.318317024022988 7.857415148488792 0.0 -0.03168628041201853 -0.01730444618862 0.0
16 1 12.8557081362882 5.6091721906399785 0.0 0.020057683923761255 0.04232854031707621 0.0
17 1 16.628249160466623 19.435083805378046 0.0 -0.03500182232523771 -0.015568756799206588 0.0
18 2 16.215943468329343 5.971298690757585 0.0 0.005479323186314042 0.12819500389864918 0.0
19 1 12.349901294013621 6.086715126608453 0.0 0.13212585031699117 -0.027166270915073863 0.0
20 1 2.2386767451928153 18.72751937810072 0.0 -0.053238391978827015 0.07717901387156617 0.0
21 1 6.132819289476884 14.543527739634625 0.0 -0.040828581186374606 0.005194129741142454 0.0
22 2 0.20262802470101277 4.867966814629789 0.0 0.0436271815862403 0.028760477295677603 0.0
23 1 8.168503129356004 17.11388988445847 0.0 -0.05000666614455352 0.026195001629477743 0.0
24 1 6.452315650693325 1.7711742595958793 0.0 0.05024700149393737 -0.05695112716232301 0.0
25 1 4.257415576494411 18.313889488805895 0.0 -0.004144523603405022 0.00028270459142420144 0.0
26 1 3.1852184798513257 0.5831284409101047 0.0 0.04469016110562189 0.011775382778006913 0.0
27 1 16.140615865797596 4.864109326974798 0.0 0.08307127969146458 -0.049284566694242596 0.0
28 1 16.8100119322596 5.05574345056139 0.0 0.027850933969741632 -0.017648373186900438 0.0
29 2 9.514490006245092 5.900097220741162 0.0 0.13150041481266853 0.049279898130890225 0.0
30 1 15.606073658068794 8.658459170626932 0.0 -0.18949939728466325 -0.12170129800606037 0.0
31 1 5.0353632134928885 18.49841232659306 0.0 0.05548524710911739 -0.01728506686487136 0.0
32 2 16.4324322090179 18.36642814116023 0.0 -0.03625103733117277 0.010614542802790417 0.0
33 1 0.49467515672947177 14.1215694857775 0.0 0.07849276638946258 -0.14270477685651048 0.0
34 1 15.498708021768463 2.056315756923271 0.0 0.026217109126526306 0.055989503262812323 0.0
35 1 9.20550324780126 0.0995317352608265 0.0 0.028138576192523666 -0.05407152310734482 0.0
36 2 0.5282075807133093 17.616248976954072 0.0 -0.03003984658496752 0.04411035657563842 0.0
37 1 13.995769211978216 6.885678640285268 0.0 0.11365475585121679 -0.11260834959252729 0.0
38 2 3.230386174406475 5.034728649820231 0.0 -0.010868729667988136 -0.10780020201070444 0.0
39 2 7.537379986388816 9.792373913141716 0.0 0.0028552173148965326 -0.022390702595144862 0.0
40 1 9.896446126352483 10.342047229717215 0.0 0.08633043307512711 -0.06931398126204723 0.0
41 2 14.607175075381111 2.6638662902489347 0.0 -0.007496838130353924 -0.041022520389204016 0.0
42 1 15.742824351241493 4.273606214569465 0.0 0.10752948966229207 0.061915802557085974 0.0
43 1 19.505741772276007 19.116731488416885 0.0 0.12707604688773277 0.0686945933174749 0.0
44 2 19.46200211315258 9.3329192307599 0.0 -0.013843797588495629 0.05056175053452139 0.0
45 1 10.191342259539876 8.028746454202619 0.0 0.0419212827596382 -0.012704057533021203 0.0
46 1 19.31784885634536 17.0336393116689 0.0 0.11994138093980253 -0.016040221275506587 0.0
47 2 13.55551432653352 3.32514703423882 0.0 -0.007091446752138586 0.02152898342166786 0.0
48 2 2.7273648518044666 7.707428500122614 0.0 0.08885765336582072 -0.040478806152074796 0.0
49 1 9.271738358107386 1.4622234219962433 0.0 0.09301156166439481 -0.02014526366456274 0.0
50 2 18.203005586848022 17.15502703458912 0.0 -0.06737235717753783 -0.07292573069547949 0.0
51 1 11.896545086961735 7.030687867738055 0.0 0.06761782764278194 -0.015297961061113495 0.0
52 2 13.875751628549235 14.51040577530916 0.0 -0.03938917954498267 0.028453297039237806 0.0
53 2 13.870988913488777 16.619788131618662 0.0 0.07552231993207485 -0.05016136183027698 0.0
54 1 9.892537825940456 13.100568264500742 0.0 -0.1306810854493542 0.01839802157261641 0.0
55 1 14.806946114113732 17.211152529122465 0.0 -0.0073910875977588495 0.08919161452390174 0.0
56 1 16.101423379192365 14.808330473683174 0.0 -0.04973376341797853 -0.007837995885518976 0.0
57 1 15.430424637051496 11.391597181415657 0.0 0.019872200469629054 0.1342173983344103 0.0
58 2 18.189481180896163 9.96339010739474 0.0 0.002273306192378589 -0.04356619184865762 0.0
59 2 19.01528259086338 2.842806883415274 0.0 0.016405483438466557 0.014982767769077868 0.0
60 1 19.723802916867818 15.36514227619976 0.0 -0.07003026882032956 0.04695719103190567 0.0
61 2 5.93869939153616 10.288989316046946 0.0 -0.056869579659487954 -0.08072194500748957 0.0
62 1 9.594938550279878 18.063150018057843 0.0 -0.06202859305758878 0.013626353075762229 0.0
63 1 6.005798843133285 17.641886508551217 0.0 -0.04079331065874062 -0.033318256174272434 0.0
64 2 6.366731935316556 9.13831916234407 0.0 -0.05085215167857959 -0.007629835619964994 0.0
65 1 1.6183619822158906 14.8634397751181 0.0 0.09380458552123179 0.04158367521744459 0.0
66 2 18.872238952337554 16.01709046865641 0.0 -0.04969132687937554 0.042873519070895934 0.0
67 1 9.83759757219488 0.26469306515288554 0.0 -0.08030377719260814 0.06140445402822874 0.0
68 2 19.313253325459993 13.520368632369046 0.0 0.021837300412942916 0.012795039859437836 0.0
69 2 6.768420379976386 15.399846417075214 0.0 0.05089283255052438 0.020782099401104596 0.0
70 1 8.555358250409983 0.04449448232587332 0.0 0.04364991112548206 0.07805161598329133 0.0
71 1 15.837016488349343 14.178189877208254 0.0 -0.017536956063275284 -0.007832109513357778 0.0
72 1 17.295226669469322 6.213012419428511 0.0 0.07593110919445903 0.022927074151997934 0.0
73 1 16.51036665054214 13.04850458793298 0.0 -0.03036462237790853 0.06430663819696174 0.0
74 1 6.972444977594074 2.176351044967811 0.0 0.02037774306946676 -0.04362220133174469 0.0
75 2 12.177628339116254 0.14891315398142915 0.0 0.06356216118684777 0.01626601722538209 0.0
76 1 3.71172083674153 9.070918475817695 0.0 0.0783471199892007 0.10823206745857858 0.0
77 1 2.6457624490527945 0.9721027117442071 0.0 -0.008604703454510273 0.04864283933037725 0.0
78 2 18.038306712393076 0.7032944243033297 0.0 0.05123735533180755 -0.0064446125641093015 0.0
79 1 0.9429839170460438 14.738506552975695 0.0 -0.046148626313448224 -0.038310422544045035 0.0
80 2 12.662385151142253 18.78435082265473 0.0 0.008430398225007362 0.07788092564599947 0.0
81 1 3.56379120533797 9.710724386365186 0.0 0.0809344582415461 -0.035534743531626244 0.0
82 2 13.099277715056981 15.570010548428414 0.0 -0.0010721435368448785 0.08676046599330661 0.0
83 1 18.88025565710633 5.189680013381283 0.0 -0.07844582166662144 0.014519484533403033 0.0
84 2 8.3997931631587 7.648445689988696 0.0 0.055535588117525396 -0.11537281687711325 0.0
85 1 5.786136073712734 18.38749650085766 0.0 0.11701337045715204 -0.04859400029558431 0.0
86 1 14.184172266283378 8.642516838840129 0.0 0.05786564532200938 0.038155728710346414 0.0
87 1 9.434451853660201 18.731614087390287 0.0 -0.03957316671377249 -0.0824419550513161 0.0
88 2 10.03572871881523 4.76370125926491 0.0 0.019833618177245972 0.018614359791853687 0.0
89 1 0.6107321084995077 15.342236875627407 0.0 -0.041519823995845584 0.009224638205918002 0.0
90 2 10.600125808755129 14.559753641792772 0.0 -0.029665780421764196 -0.0725039182131255 0.0
91 2 8.504021161403445 18.14310138984314 0.0 0.03755093442002447 0.05645434014087147 0.0
92 1 6.961181258821028 2.8384104263324605 0.0 0.0383424402624194 -0.07822006748016615 0.0
93 1 2.9188783334793844 3.955780724390984 0.0 -0.06958529968742769 -0.00400390194174422 0.0
94 1 15.974170945523328 13.517647550219792 0.0 -0.010982561305134418 -0.004953155711902656 0.0
95 2 7.99245697653466 15.348211049834866 0.0 -0.028182877087713727 0.043356995948781646 0.0
96 2 3.9971106508986227 7.493961229623039 0.0 0.10497786253615538 -0.09610039075058038 0.0
97 1 16.36871270114204 7.043075256399964 0.0 -0.06999575702468001 0.07193751406029252 0.0
98 2 7.055784783942641 6.167479297689757 0.0 0.03472169314125644 -0.05649019048880062 0.0
99 1 5.562286227010369 14.228044623794002 0.0 -0.1833582164903586 -0.06261979281752286 0.0
100 1 3.280026366074327 16.187635859786404 0.0 -0.08327416584572199 -0.06553194766948503 0.0
101 1 7.387705297998231 14.425106494601097 0.0 0.02746307879193621 0.008276718957263826 0.0
102 1 0.9405866740017506 18.644066246127295 0.0 -0.06144898072127493 -0.05289046108577353 0.0
103 1 19.426746491576303 11.056531325998394 0.0 -0.09336521295360972 0.08093270234535048 0.0
104 2 4.89454739671626 12.142627609498236 0.0 0.01361558015832292 -0.01019368247411856 0.0
105 1 11.647040348528964 16.02989452517852 0.0 0.06524913685681305 0.05753224624941924 0.0
106 1 14.18303469562215 15.577323472685652 0.0 0.058903104778952414 0.025660801599807697 0.0
107 1 16.62078110501713 15.200282711384254 0.0 0.023258973727955327 -0.03345129176155371 0.0
108 2 7.2491153333412 16.53377128842747 0.0 0.03439460107079288 0.04123511273339899 0.0
109 1 17.035578976563265 17.355977046858094 0.0 -0.07691169515241364 0.12158028406440377 0.0
110 2 13.157285592712281 9.089247533729797 0.0 -0.028923115258006785 -0.06571324311165569 0.0
111 1 2.139997073425674 5.021987764599886 0.0 -0.022480386193648758 -0.009975321035075466 0.0
112 1 10.558160010417458 8.609658863583828 0.0 -0.13594321365923018 0.08694931933839939 0.0
113 1 9.430231012941498 12.562000431509576 0.0 0.03774781465527633 -0.06954966971255831 0.0
114 1 16.3830813101995 0.3112534869554582 0.0 -0.055422429256631184 -0.0323949518214823 0.0
115 1 1.7030839270527998 9.89837991606655 0.0 0.0758011371596957 -0.1605217720519669 0.0
116 2 3.9205700417482445 17.085797446068284 0.0 -0.001122078960131089 -0.01938986249351794 0.0
117 2 3.3069296071761776 15.058903498808872 0.0 -0.04890223887119734 -0.017246612704731983 0.0
118 1 3.670560995422893 10.954145179223339 0.0 0.08857764065863949 0.07193115520661357 0.0
119 1 19.289437080363278 5.716776653107437 0.0 -0.026701997976069976 0.01101572820271584 0.0
120 2 15.341927201425746 10.347824365939744 0.0 -0.02721915177943502 -0.03359871022437621 0.0
121 2 0.7294844133573128 6.897423351766957 0.0 0.03746515870714876 0.0024459733983166177 0.0
122 1 7.125435187735149 1.498315115575905 0.0 -0.021253698115948832 0.11691975342127471 0.0
123 2 2.051903611248688 3.2505620482860884 0.0 -0.09979282075120614 -0.06555325506874037 0.0
124 2 1.5859497920073258 0.7975765248951333 0.0 0.04590110906198584 -0.011063315838697591 0.0
125 2 9.28494804736439 17.010008674879963 0.0 0.026197112240919487 -0.0058800361429273045 0.0
126 2 19.281895198990405 12.183351935430698 0.0 0.04186254130847252 0.0464559817491827 0.0
127 2 9.920490535201695 2.384250157614674 0.0 -0.019227003546765913 -0.023088579445474818 0.0
128 2 17.068902759091245 10.657406325662597 0.0 -0.0021838968043959867 -0.0424429234243853 0.0
129 2 16.922573444171807 14.08141262896605 0.0 0.03965658476719876 0.1009149692061873 0.0
130 1 19.21285952154166 10.424341606446303 0.0 -0.22236541521894496 0.07425536328716834 0.0
131 1 6.931520416075228 12.129178085388078 0.0 -0.037522866171940415 -0.07048443101368891 0.0
132 1 10.562310184196704 13.365260976641256 0.0 -0.06047201158528748 -0.11116314763071282 0.0
133 2 4.332339507593539 15.876757811018026 0.0 0.028982901218194683 -0.04942068256982657 0.0
134 2 2.540788428326787 17.010306211931614 0.0 -0.02184746758716992 0.06220996931565921 0.0
135 2 14.66873070770341 3.967202767191239 0.0 0.03093687309862632 0.0043913865367468516 0.0
136 1 0.2623853450491561 18.68934883102248 0.0 -0.024817785032014823 -0.05696109542714868 0.0
137 2 12.503404081848261 16.70837441073867 0.0 0.02630966410120921 -0.06078934539031787 0.0
138 1 14.26292127691463 10.822874818077509 0.0 0.13099558113463552 -0.0233538907916486 0.0
139 1 18.58551072790342 5.817024497257405 0.0 0.028155603750523808 -0.011875089057070177 0.0
140 2 4.116412606314642 2.7303982675958687 0.0 -0.011548005270005263 0.020873102448153796 0.0
141 2 4.405260111919851 5.241755233074661 0.0 -0.026893810861010666 -0.054930280761392704 0.0
142 2 5.550649464349432 0.35394531961776576 0.0 -0.02649802295821594 -0.10207711632213733 0.0
143 1 15.320886630157007 9.273554511986893 0.0 -0.04709388286862369 -0.03341717733844469 0.0
144 1 11.993500604014839 15.4311428351562 0.0 0.16949917664273695 -0.033734093033749815 0.0
145 1 12.99540984465008 6.278516927204344 0.0 0.12527692953517705 -0.018508908419004214 0.0
146 2 6.339253635479218 3.699970376790981 0.0 0.03359163891132586 -0.12056188872316079 0.0
147 2 15.905995028261524 17.205851249091893 0.0 0.020415264758555863 0.11671308579822406 0.0
148 2 12.456697864612575 1.3516961605523654 0.0 -0.057097984876344196 0.04179254574363075 0.0
149 2 18.3049249522395 11.212688478115664 0.0 0.11643924556911249 -0.09176630912630078 0.0
150 2 10.763994241486763 10.977707764547263 0.0 -0.05377679342690823 0.07323110286289512 0.0
151 2 4.81689344237321 10.878502331788129 0.0 -0.11950321898924428 -0.03159423579955405 0.0
152 1 7.391234143076853 3.3767970039599304 0.0 0.15395367577287045 -0.06989022987426542 0.0
153 2 19.07939595999685 18.09690130972527 0.0 0.09070592200675794 0.03169796420120471 0.0
154 2 0.6117631207094818 11.620108581964036 0.0 -0.004853453526919939 0.024603571251866567 0.0
155 1 16.349502630682725 7.713765026765548 0.0 -0.06355261467208546 0.1733809483655324 0.0
156 1 16.288720725795415 8.41963483989061 0.0 0.1918514812899694 0.11966180661959974 0.0
157 2 2.736509632085929 10.377344597073483 0.0 0.10349285444559145 0.022280403345152928 0.0
158 2 14.926771962031202 12.337997485407449 0.0 -0.0062234140119939215 0.027870371691676988 0.0
159 1 0.1692008506272147 5.949158282282451 0.0 0.06749564150257321 0.06523077637418963 0.0
160 1 11.324797245444366 15.422602634886207 0.0 -0.04587872403452595 0.05712230526828148 0.0
161 2 5.532513546234257 15.458653330984815 0.0 -0.07196213770471727 0.05631225711785905 0.0
162 1 15.99924981491266 9.243756518900884 0.0 0.18119502699627704 -0.05263369664167583 0.0
163 2 10.308483674499808 3.569785501308132 0.0 0.010569063173896366 -0.0994539531954729 0.0
164 1 12.183852022918256 9.611243703327927 0.0 0.16009278823788972 -0.13327295454423213 0.0
165 2 13.748259237484818 12.602052903213284 0.0 -0.028860310062792185 -0.0023572356729998434 0.0
166 1 1.2587911658299573 15.416840960593907 0.0 -0.04519190483349086 0.057606691114611586 0.0
167 2 2.5759048828381865 9.088740840873854 0.0 -0.06580787458812823 0.08169096547336355 0.0
168 1 15.51295998732119 16.03169272694671 0.0 -0.0072061015488086595 0.018161892187075774 0.0
169 1 7.73901243662199 5.3282998663734995 0.0 0.14942473051115965 -0.08107228914682978 0.0
170 1 13.295356442937813 6.891978171195303 0.0 -0.06308778231234902 -0.003182358878186532 0.0
171 1 5.368753438187774 17.87850188928412 0.0 -0.2186441690428003 0.12967381042368795 0.0
172 1 8.846433368644881 15.994012890358126 0.0 0.008679835066978177 -0.047993997556502445 0.0
173 2 8.757591669874293 4.882181329156908 0.0 0.04956047386594627 -0.006513830462959075 0.0
174 1 8.972388860109392 19.216517191978237 0.0 0.09750936189671125 -0.014990430159261763 0.0
175 2 1.2312468022325969 5.653266139841909 0.0 -0.07363331645305003 0.015431110376640729 0.0
176 2 11.684607901456268 11.95616998013961 0.0 0.031006552132077977 0.03276650803058763 0.0
177 1 17.411107630573053 17.921303764832057 0.0 -0.05478848025449409 -0.05460176222094355 0.0
178 1 15.920664930281484 11.847439449087327 0.0 -0.052311408825057595 0.024572137983377193 0.0
179 2 18.098677603813723 12.454651020528367 0.0 -0.01729720602423131 0.03984799479810864 0.0
180 2 11.266296953753878 2.0740394285496846 0.0 0.09157162324528306 0.061428234108734686 0.0
181 1 5.906719136135721 1.3816609296455582 0.0 -0.058855806674840944 -0.08270001977801336 0.0
182 2 5.601493496698783 5.529978628550039 0.0 0.05675025469283382 -0.0328390585221531 0.0
183 1 7.615471046325503 2.007488613078053 0.0 -0.04799427822999599 -0.062040836044126475 0.0
184 1 9.399412985355564 8.22580337327319 0.0 0.10782418799158282 -0.006217627925028273 0.0
185 1 2.2605244606230745 14.687413554206236 0.0 -0.1426936834709109 0.07136801373840307 0.0
186 1 11.201518361762195 12.962524868394313 0.0 -0.08984032030583089 0.09838647336701864 0.0
187 1 7.513699852908764 17.611800595877813 0.0 -0.053766394957648726 -0.02894101860111186 0.0
188 1 11.429138117374366 16.78895034016962 0.0 -0.014184397944735644 -0.009657230748561962 0.0
189 2 8.646258884341915 2.3566282635063147 0.0 -0.04472336895625805 0.05987103864720796 0.0
190 1 14.296220070236917 17.633962932192816 0.0 -0.04964449529609893 0.05054080153775517 0.0
191 2 4.575038671158475 14.65020529726912 0.0 0.018779788530048462 -0.04997176786656667 0.0
192 2 11.942797565620568 10.660496609804806 0.0 0.009261809987882374 0.0619852996352458 0.0
193 1 8.052188338072698 3.2991625330078307 0.0 -0.1482054582547785 -0.10731150943168012 0.0
194 1 18.22253670385141 7.120353354138128 0.0 0.03133200392395916 -0.043042023603892594 0.0
195 2 17.12663312268148 9.150271596737639 0.0 0.11436659013822821 -0.05082753152795797 0.0
196 1 6.342289169314697 2.517725321789982 0.0 0.19521939100963162 -0.05559740929104696 0.0
197 1 5.836103836766211 2.0446385673516074 0.0 -0.06860191527674289 0.0053404385968957 0.0
198 2 8.308068954120483 6.353219188092917 0.0 0.05809203519277667 -0.08387987931478928 0.0
199 2 14.734797782309636 1.2944331883056306 0.0 0.010378865208692406 0.022124874853573107 0.0
200 1 7.61910958490745 2.7234113651671095 0.0 0.05568452663541343 -0.029460612850363447 0.0
201 2 18.909114764894447 14.687698617636324 0.0 0.03746135250568263 -0.08729883766839608 0.0
202 2 3.250296097509731 6.359872991735308 0.0 -0.0035987137703579787 -0.02758031888735185 0.0
203 2 1.6828154579771244 12.288742364888607 0.0 0.010754024779619927 -0.07784719758156114 0.0
204 1 2.348505166016038 5.672103947570526 0.0 0.007825808885777445 -0.15441017889931483 0.0
205 2 17.910844609310775 4.719061416156411 0.0 -0.03902079444030934 -0.0013257624850929492 0.0
206 1 2.488106421401713 2.2418038736390273 0.0 -0.17268707197056216 -0.02452732327781511 0.0
207 1 6.234015395012665 18.896770093628753 0.0 -0.015051075746989658 0.048750793521864545 0.0
208 2 15.872794191835204 3.132890442652322 0.0 0.005593552867136789 0.054686612173138895 0.0
209 1 17.487987200368572 18.62305913894028 0.0 0.08283208530912942 -0.03642306778604546 0.0
210 1 7.306964086763403 7.274282616691068 0.0 -0.009982196726537482 -0.11855754750364997 0.0
211 1 18.221323402090107 6.4078045424152 0.0 -0.11016356903727853 0.10193424266693668 0.0
212 1 6.528198527406145 1.0827659840691861 0.0 0.08776892600292707 0.029082064596948346 0.0
213 2 11.060353522495877 9.605068368314582 0.0 0.04092249174296841 -0.026085069482505576 0.0
214 1 8.65891458143053 3.6533313087984913 0.0 -0.06635138120220337 0.1434421612708642 0.0
215 1 13.670986847683231 7.460755264017334 0.0 0.038625175949148556 0.14935775914597405 0.0
216 1 4.920601049495464 19.195417681673106 0.0 0.12604321549640554 0.0852696941144406 0.0
217 1 12.146125229019006 17.79733292874066 0.0 -0.07775813703291794 -0.08013499531149233 0.0
218 1 15.867498994386485 12.85829962577442 0.0 -0.05371320275055137 -0.019280121453847394 0.0
219 1 6.634933794444233 0.42148277147172614 0.0 -0.019663950799761146 0.11045294882536809 0.0
220 1 7.715236045417788 4.623596903304913 0.0 0.1430973406671525 -0.032898017309734975 0.0
221 2 12.645493565468191 14.428951391144501 0.0 -0.016651634049244635 0.07331792664056756 0.0
222 2 0.7024900089696162 19.70212830128661 0.0 0.022151897652256558 -0.06374490052859431 0.0
223 1 8.81587186463679 12.230127835636992 0.0 -0.021670856877945826 0.006282952197209002 0.0
224 1 14.063991723677596 11.506786200181145 0.0 -0.026844913964625936 0.04072127398825833 0.0
225 1 3.0113381392501397 2.668756956222201 0.0 -0.0491866967700726 -0.007631549962245485 0.0
226 1 17.282534913600415 11.731856327471023 0.0 0.04532755025501587 0.008832543173261603 0.0
227 1 17.00100395251457 2.932019282257207 0.0 0.015675004594898755 -0.03930092928759083 0.0
228 1 8.300426320488704 19.206064848793318 0.0 0.028422717632068942 -0.026527453994969814 0.0
229 2 12.479304882554144 3.9850911389113137 0.0 0.013595253863753357 -0.025999551816834294 0.0
230 1 2.358530659227281 1.5897737442971642 0.0 0.009688471307600612 0.07666595982160912 0.0
231 1 13.309460183016835 13.57147062015424 0.0 -0.103919997699192 0.18005325375506856 0.0
232 2 19.004160870050267 1.6132858167457071 0.0 -0.03759318094256266 -0.03650807140445967 0.0
233 2 19.73492536052181 8.031527462258074 0.0 -0.10703716622708873 -0.00988647189375474 0.0
234 1 15.77819376495576 7.332427742689149 0.0 0.06306375786922985 -0.11048457112827617 0.0
235 1 5.56985436614385 19.020307014968317 0.0 -0.11393426190941457 -0.0453261533828218 0.0
236 1 3.9544880905988937 11.544127543440982 0.0 -0.017739822527164557 -0.04326032003878303 0.0
237 2 4.819147025293668 1.6081104748795851 0.0 -0.03260619617479861 -0.019018801181015742 0.0
238 2 6.667113310672779 4.9211175919827435 0.0 0.07239188904313247 -0.0196726008228394 0.0
239 1 9.82067628143618 15.346614210482029 0.0 -0.0614892562666466 -0.016685880304650607 0.0
240 1 16.98629877118142 6.819819981188209 0.0 0.018769458449368812 0.15562002093315588 0.0
241 1 17.077083373480388 0.1611016954371032 0.0 -0.007330046138399589 0.102637933079729 0.0
242 2 5.31903843522138 2.9998397193292647 0.0 0.08871937962542574 -0.09105190940736124 0.0
243 1 13.346166311333295 0.6656629014849657 0.0 -0.1366480398217212 0.028818312346142044 0.0
244 2 6.009075077204226 12.80756517895725 0.0 -0.04097565724089545 0.009591532799222023 0.0
245 2 2.6309267809701424 13.061993161875245 0.0 0.014542216538027248 -0.04543516623246637 0.0
246 2 1.5802005573262288 13.78631496632719 0.0 0.012274630123046824 -0.015578606153997431 0.0
247 1 6.741764953930924 14.262405080970062 0.0 0.045242308750119746 -6.753154405728353e-5 0.0
248 2 8.268468077009437 13.784830379384244 0.0 0.10293933830608509 0.0008756837547367705 0.0
249 2 13.933644428511458 18.719219167504843 0.0 0.04350718631171457 0.02537692136882238 0.0
250 2 13.222027660062583 10.461640558196374 0.0 0.0031637521822364314 -0.02375713475750725 0.0
251 1 9.494933790295914 15.935331020824385 0.0 0.047017442216427015 0.0012479752763528906 0.0
252 2 1.460654943706317 7.923661822399695 0.0 0.12034871196922681 0.005513914447998478 0.0
253 1 1.6197719040438403 17.596093937715477 0.0 0.0266927896766095 0.06766799501473608 0.0
254 1 13.36809247692777 11.56402644496408 0.0 0.009869150843714241 -0.001645300497555227 0.0
255 1 6.545478184455299 19.51300294616738 0.0 0.0029237477779084173 -0.0494178032648057 0.0
256 2 0.6397594392827697 12.951333129196579 0.0 -0.09032081783390898 -0.07355359230183223 0.0
257 1 4.714702814413419 17.838083733177225 0.0 0.19003872829506144 -0.07284068167520641 0.0
258 2 17.817640582266616 2.1386222834257755 0.0 0.05543574612805815 0.11795769346234912 0.0
259 2 10.789937135770401 7.00123036669332 0.0 0.04157622625218885 0.020011642969972217 0.0
260 2 13.521362487759998 4.67892293510861 0.0 -0.02636548558404948 0.022504380253286247 0.0
261 2 8.547286446600827 8.938635155007294 0.0 -0.009316722330519075 -0.0416691045434896 0.0
262 1 12.765322693795412 12.128271137983702 0.0 -0.13446870790510837 0.022589616259861153 0.0
263 2 1.355922304274858 2.152153732005674 0.0 -0.05333587675680835 -0.02411292805568563 0.0
264 2 14.739119251107894 7.707138132841409 0.0 -0.015374290228199573 -0.017717843110974355 0.0
265 1 18.614500744013053 7.675219445905246 0.0 -0.07149941386055805 -0.011795051853008269 0.0
266 2 10.349480876248977 1.2100855533069237 0.0 -0.009835847636590447 0.02956173431225184 0.0
267 2 0.9709150452126734 9.074906313194173 0.0 -0.12983946728045795 0.05521303509184797 0.0
268 1 2.640037267708062 14.150236765186428 0.0 0.023043576734082073 -0.03731889742682137 0.0
269 2 1.9834523275802125 6.6997128958893635 0.0 0.042588297580361215 -0.023571559391350985 0.0
270 2 10.839355442140228 5.742557516401329 0.0 -0.06644177919585507 0.009635840781169077 0.0
271 2 10.893758117256588 0.048308268106198565 0.0 0.04606076321762671 -0.07290251667684347 0.0
272 1 7.201809031650992 0.08097176974594883 0.0 0.08196633679379216 0.1022532770968717 0.0
273 2 18.0696581517401 13.71767719039476 0.0 -0.10211209398060389 -0.054601265583567905 0.0
274 2 15.07983627998549 5.16783263381863 0.0 0.02269112046984609 0.07755089249934158 0.0
275 1 17.65797712726976 6.773822449730957 0.0 -0.023888132092617656 0.09647881106098473 0.0
276 1 8.86792097177515 14.701101661409922 0.0 0.09547299036628433 -0.20647561825235486 0.0
277 1 7.87016434426348 19.74197258674162 0.0 -0.12188964504934634 0.07204478234468745 0.0
278 2 10.504983247831085 17.421917499222786 0.0 0.03136963189110705 -0.032557966655359434 0.0
279 1 16.307176608473856 9.85739294615468 0.0 0.09194448871203842 -0.016434740272587733 0.0
280 2 19.027752346087066 4.087452469312172 0.0 0.07269312394650078 -0.08023399482037052 0.0
281 2 13.601123956370163 1.849503148157901 0.0 0.04970369523296443 -0.018062248676168853 0.0
282 1 17.784121868550866 16.14938713415883 0.0 -0.06771856848686794 -0.044700767696082055 0.0
283 2 15.51347431211983 19.441523676032574 0.0 0.06124329038703662 0.16631044737758646 0.0
284 2 11.44013805932223 8.024050171772187 0.0 0.010913857772558338 0.005127469856619947 0.0
285 2 7.343990359991526 18.723283206504163 0.0 0.009678732117024939 0.10094707282567876 0.0
286 2 15.036808135048213 14.910694801979515 0.0 0.06769266870214541 0.06638512219921178 0.0
287 1 2.074984093461715 19.475260288633965 0.0 0.010904929292921271 0.134522505146873 0.0
288 1 17.866233963308684 5.842109821295586 0.0 -0.002780843929477751 0.021067535018629943 0.0
289 1 11.595443036434594 18.94068520691242 0.0 -0.07417708185162067 -0.06949443602878755 0.0
290 1 8.045288477555413 3.9928231383205053 0.0 0.04001725879927952 -0.004267612722157543 0.0
291 1 15.016590548672811 16.5604643400098 0.0 -0.02559023340226178 -0.10893765550030446 0.0
292 2 16.90265695166432 1.2505765136141391 0.0 -0.02452181753667306 0.04643913193915359 0.0
293 1 9.333436042380068 0.761760378940519 0.0 -0.025285028277738614 0.041833862743969545 0.0
294 1 11.591011877335117 18.211198119650458 0.0 -0.036983517084367624 -0.021597631323777337 0.0
295 1 14.773679895939429 15.942648551122526 0.0 -0.11044164807240453 0.06308907108983251 0.0
296 1 6.4136412796451765 18.166164456486158 0.0 -0.06539321991006011 0.05968450809570529 0.0
297 1 14.869598845239231 8.786038196121774 0.0 0.020242739987008193 -0.03317140885029561 0.0
298 1 9.282577542196687 3.951039728990924 0.0 0.056342540764361654 -0.003672216010771527 0.0
299 2 15.167072153073844 18.257602852233056 0.0 0.02212914814753987 0.04303038200055236 0.0
300 2 3.1816510661964044 18.056724974681657 0.0 -0.039142346844071155 0.009316856409175072 0.0
301 2 10.529354754558113 18.635643748256925 0.0 0.03175011649417246 -0.11865523463222828 0.0
302 2 0.44176519288125005 1.2268169873054646 0.0 -0.0006652533991329487 -0.0529754225627745 0.0
303 2 12.528207255584459 2.609190354849042 0.0 0.03162593297340022 -0.022569133960260196 0.0
304 2 14.285755718660907 9.7226816412224 0.0 -0.002118358225129115 -0.018306360083183922 0.0
305 2 10.456527688813454 12.190446243292605 0.0 0.017663567757706562 -0.10091291004601756 0.0
306 2 4.873482437662492 13.39482129344299 0.0 -0.06417123675015077 0.0013666640668636308 0.0
307 2 16.804232405064898 3.9849055314923874 0.0 0.06148430466336287 -0.008149694316677766 0.0
308 1 9.238824459748017 3.2832695648861048 0.0 0.015613899803799007 0.026110895900784997 0.0
309 2 11.338106122674484 4.590117469055262 0.0 0.018107999497798982 0.05814700912433886 0.0
310 1 15.765443230574212 8.00887430435773 0.0 -0.02640082501510358 -0.015080269482359918 0.0
311 2 17.410652604262104 7.8554843729041455 0.0 0.02252901471809851 -0.0030201405535168657 0.0
312 1 0.24297917033677816 14.74701721776002 0.0 -0.08343557031910627 -0.017719314779258442 0.0
313 1 11.426156510678148 0.9875376660905967 0.0 -0.005657991577373147 0.06325322962712258 0.0
314 2 3.2427995840620523 19.257855726088735 0.0 -0.04863928314755489 0.03152185544289641 0.0
315 2 9.741725597623539 9.278862748368539 0.0 -0.010820279592100706 -0.03666625599525257 0.0
316 1 11.614583725180731 14.130108690694279 0.0 -0.052882981076566096 -0.10508496805906828 0.0
317 2 11.484856486185972 3.2954542635586104 0.0 0.008057357773006105 -0.029957855563295523 0.0
318 2 1.67986759483331 10.998963659370233 0.0 -0.02902991543205128 0.12018772240457805 0.0
319 1 1.5666995487158752 18.974696085667425 0.0 -0.0007004849346187845 -0.09087388028273954 0.0
320 2 1.2175703916991565 16.528811231379812 0.0 -0.031206622265808826 -0.07612344259300748 0.0
321 1 13.732802127195189 8.134704914420192 0.0 -0.08978792718978945 0.05258783526310236 0.0
322 1 11.743215902800403 6.371381618990943 0.0 0.11815925651377052 0.12543581826382996 0.0
323 1 8.833117671529065 12.876761962262494 0.0 0.1295359967962162 0.02522339260836439 0.0