ITEM: TIMESTEP
0
ITEM: NUMBER OF ATOMS
400
ITEM: BOX BOUNDS xy xz yz pp pp pp
0.0 19.7609 0.0
0.0 19.7609 0.0
0.0 10.0 0.0
ITEM: ATOMS id type x y z vx vy vz
1 1 3.5929424906721787 19.536930990010266 0.0 0.07687909159464794 -0.08297386522744422 0.0
2 2 3.319298345729606 14.949021152754279 0.0 0.0030595315176172493 -0.01734683306033948 0.0
3 1 0.28152705752214485 16.806439746360347 0.0 -0.02046706329458294 0.23985663825116438 0.0
4 1 15.355744328438236 13.153821176695946 0.0 -0.02351070955563416 -0.021294793617844487 0.0
5 1 11.064474144996584 3.3059781872466365 0.0 0.19228415115047273 0.0774158118982911 0.0
6 2 7.851159229352676 0.004418272062863945 0.0 -0.03490409115802886 -0.016362578708837863 0.0
7 2 11.502527676930326 2.2467843285647167 0.0 -0.025193216448046788 -0.09250747684573014 0.0
8 1 15.070738054696584 5.247531920749374 0.0 0.0722725871383004 0.025043320163109624 0.0
9 2 1.1807282905255025 17.47114244285398 0.0 -0.028239656078666214 0.045961269173123175 0.0
10 1 6.422430086815 14.052431822569666 0.0 0.0014997622837272858 -0.22584717456886677 0.0
11 2 18.5523552763065 19.67797686367987 0.0 0.003798876221516882 0.011442466622955777 0.0
12 1 7.216496518796177 15.143841754875435 0.0 -0.050400034859827574 -0.0642439244876202 0.0
13 2 8.233996343324069 6.876724836322766 0.0 0.046505950033792307 -0.04647780542690394 0.0
14 2 3.497985788334535 13.644638071558617 0.0 0.04698844760154206 -0.05088450586553985 0.0
15 2 3.994280561405803 8.441708588167304 0.0 0.014353450556574178 0.01522923886783763 0.0
16 1 1.0678755608709811 15.775491942907628 0.0 0.004317777275547296 0.07143766433726645 0.0
17 1 2.4423358646446816 6.680547780215195 0.0 0.08112714563769696 0.07168357723448192 0.0
18 2 13.209302474069169 15.756633518638056 0.0 -0.044328909284204625 -0.008939834678226745 0.0
19 1 4.633018958471255 11.55206601417846 0.0 0.03373883702694963 0.007297003341080153 0.0
20 1 10.422650524550853 15.135105355474039 0.0 0.08911395248692522 -0.022445214403788254 0.0
21 1 13.581272861409223 10.50098438101231 0.0 -0.06911508494319042 0.1134722502925915 0.0
22 2 9.143410118053216 10.028393038889405 0.0 0.044330841057815484 -0.037118706538187114 0.0
23 1 19.52897769383205 8.36673916025633 0.0 -0.12028768136243409 0.024123850185086892 0.0
24 1 18.615979166473725 1.6248203108139863 0.0 -0.02681406263922753 0.02881295730170615 0.0
25 1 18.312153522426946 4.423833626928225 0.0 0.10798161883988915 -0.001566847786746262 0.0
26 1 5.421902752606314 16.65163561428512 0.0 -0.05813184532229607 -0.04218044332856175 0.0
27 1 8.376506432279772 13.814230588898248 0.0 0.01900485746071244 -0.016046548918930103 0.0
28 1 18.80850355810557 2.3340756552679913 0.0 0.0561211373819411 -0.1266932615726155 0.0
29 2 17.316237927384265 17.93312883382698 0.0 0.07214823979366954 0.021737387603000438 0.0
30 1 7.108046076321757 10.873311421188792 0.0 -0.025111137807175814 0.047165528815339364 0.0
31 1 18.719409210292138 13.7642927402443 0.0 0.058733477446147465 0.014810274600393098 0.0
32 2 19.59677933988908 3.11096341782003 0.0 -0.05646935537561676 0.04427647807661739 0.0
33 1 6.651357391766098 17.030678210723845 0.0 0.0203886033229814 -0.02155456352344552 0.0
34 1 12.073095490507171 13.653620347502615 0.0 0.05209700554292569 0.08493423595769546 0.0
35 1 4.194433893807047 19.12223042309343 0.0 -0.0182667484516675 0.008706693741553324 0.0
36 2 2.5109293675430084 19.595065557781147 0.0 -0.004882508108818014 -0.0033579018436916816 0.0
37 1 19.223783550165617 8.958132178879485 0.0 0.058560969346791426 0.011365260317431873 0.0
38 2 12.984019556250617 7.636422374427097 0.0 -0.04918892740158254 -0.2128633313360988 0.0
39 2 0.8818564936312223 5.0583080741523 0.0 0.04134242489089768 0.1294901319396573 0.0
40 1 0.22508823369584505 6.682107710497367 0.0 -0.019659647645420265 -0.1302213293092768 0.0
41 2 7.782523060729523 3.2454839358065137 0.0 0.008740526480059747 0.0053914146283411775 0.0
42 1 18.327562953861616 8.721367750656295 0.0 -0.057208235474925526 0.04615555983691613 0.0
43 1 6.984032767305313 15.753168320511442 0.0 -0.020763657534268745 0.0365307809633734 0.0
44 2 7.4396406655105025 1.190511380252769 0.0 0.007044675222152239 -0.035658492461651876 0.0
45 1 13.815640935966371 2.741383715849277 0.0 -0.08401448827954068 0.04387647011982021 0.0
46 1 3.4979369126491733 0.440585239482283 0.0 -0.046778463550800314 -0.06031501102097956 0.0
47 2 12.649006696191794 5.190774509378297 0.0 0.08716140637299039 0.07221529574265113 0.0
48 2 14.38231694222431 13.613781966447306 0.0 -0.08554147665050639 -0.03044851457132663 0.0
49 1 0.4994245152399427 14.763345834634912 0.0 0.011418893271618217 -0.09779878485877368 0.0
50 2 16.42033765607036 13.401793807081107 0.0 -0.017696788985558945 0.03252656991766337 0.0
51 1 11.732682044560782 4.511535387296985 0.0 0.07691664730793159 0.093262754199725 0.0
52 2 7.016237380086225 8.615500657402828 0.0 -0.04411426211950097 0.007952790712049292 0.0
53 2 2.1838735057117074 3.5536517995366794 0.0 -0.007134273796142844 -0.08075098533017946 0.0
54 1 12.342909024582362 14.270790666068203 0.0 0.02043894491398432 0.08839554061141355 0.0
55 1 18.497249201978047 5.091334407558554 0.0 -0.07359169973917824 -0.02903234736304925 0.0
56 1 15.121041406235781 14.42660704372313 0.0 -0.024490342822494307 -0.010693614042583685 0.0
57 1 7.078215897966313 13.932611067206897 0.0 -0.009745219788741702 0.04764253238971513 0.0
58 2 5.793932740764555 6.88899753185732 0.0 -0.03468524283531496 0.01036789435336153 0.0
59 2 0.5094559633179834 11.002039492443226 0.0 0.010572366273518015 0.07494775978191619 0.0
60 1 19.448695537228794 6.228096151414699 0.0 0.1413899544083573 0.008751686498283966 0.0
61 2 2.2310286251779803 2.2878219084642257 0.0 -0.07674178065655232 0.047400348360473396 0.0
62 1 7.758552354956821 14.074702816824882 0.0 -0.22193815600531178 -0.051356539621048344 0.0
63 1 15.144887333382592 17.16187278549501 0.0 0.05912189088025187 -0.0958851638204479 0.0
64 2 8.085431867754165 15.805272350729958 0.0 0.047062867279591636 -0.009787582887577405 0.0
65 1 17.4833938029996 1.1644390719481446 0.0 -0.0017271223047247944 -0.047812161525609145 0.0
66 2 0.9786453709873758 2.503963285041573 0.0 -0.020112145878455355 -0.01107373894081581 0.0
67 1 3.2677232919827186 4.881944068147035 0.0 -0.055756912146089826 0.0678996332424363 0.0
68 2 18.59212320893839 14.855484474681775 0.0 -0.03247172393305938 0.02316184915516333 0.0
69 2 17.05379169298761 9.77732039399692 0.0 0.04540120388345053 0.060052704830192614 0.0
70 1 10.949658874581642 15.539554542906092 0.0 0.01627511274502042 -0.02331226697725407 0.0
71 1 19.382318618819152 16.805095028112127 0.0 0.10807046561407126 0.09205674514493827 0.0
72 1 12.985788744412885 14.660186705997331 0.0 -0.18081562080842856 0.11378290749205607 0.0
73 1 17.095896002746976 6.222007784163427 0.0 -0.048172546151785414 -0.15371305360898366 0.0
74 1 8.869563525464914 0.4414656638778239 0.0 -0.053447856776586776 -0.052794057458911414 0.0
75 2 11.654766791707228 18.7842673123962 0.0 0.03831445176265374 -0.03931928695916123 0.0
76 1 15.2522171662634 8.344326796978072 0.0 -0.07335841842527037 -0.013100439160239476 0.0
77 1 5.215977024513362 11.89723674034813 0.0 0.030581620346572226 -0.02825415454595064 0.0
78 2 3.5249103132109516 11.517930642965363 0.0 -0.1109158876937316 0.03897284534480584 0.0
79 1 17.945952240300375 7.3576288324116295 0.0 0.1539082347318146 0.09705585797862684 0.0
80 2 14.22862155014105 11.413787402919157 0.0 -0.0007162839623026494 -0.006802619626780994 0.0
81 1 13.190163682032098 11.040158778358885 0.0 0.03038910229510754 -0.010324458944410132 0.0
82 2 3.275927906659893 18.497453439365227 0.0 -0.020150509687253317 -0.0065804713674389986 0.0
83 1 14.490046120985628 2.8689195506734015 0.0 -0.1117716114854273 -0.07755263837977806 0.0
84 2 13.235276039899254 1.1951728346100552 0.0 -0.011436801777096836 0.006824067044190444 0.0
85 1 8.133260405766366 13.183051346614052 0.0 -0.180265039361568 0.018594549936220093 0.0
86 1 6.938009930971175 19.14032258051215 0.0 -0.0976410523085234 -0.12818515344107476 0.0
87 1 7.9174303667673795 7.9516064610986 0.0 -0.036021921238950705 -0.030560788170407065 0.0
88 2 12.351346857677623 12.554069508949086 0.0 0.03546184523804036 -0.05216763123420354 0.0
89 1 6.860794358693713 14.584255192947507 0.0 0.09526056671172868 -0.11090828730488213 0.0
90 2 2.57620818188924 1.063403317672854 0.0 -0.05384616505396513 -0.07251595135996831 0.0
91 2 0.9012141879256005 3.800210584371643 0.0 0.10246557785014851 0.0768293947962994 0.0
92 1 4.817876214584697 17.810361736322132 0.0 0.08155686018974885 -0.02376925496784054 0.0
93 1 6.070416983559013 16.475941940087065 0.0 0.07714284117938792 -0.14591461709739031 0.0
94 1 17.77270631641609 6.149714998396809 0.0 0.0337442119047333 0.03613261015660124 0.0
95 2 10.248886955121181 12.204633174218992 0.0 -0.022093320544024644 0.04474164270796302 0.0
96 2 4.228685440751987 2.9795689441603748 0.0 -0.042569134325103175 -0.0272773504233941 0.0
97 1 14.676060075857627 7.258214400377599 0.0 -0.03855793576038644 0.01956421988093021 0.0
98 2 15.507235978862234 11.48709580735552 0.0 -0.013930814803019706 0.014940776669708979 0.0
99 1 13.095931950479471 11.709845785633465 0.0 0.0652583849348082 0.0727173723111923 0.0
100 1 11.776893957083965 3.2995894652034203 0.0 -0.08464236575555631 -0.025559528576225142 0.0
101 1 7.724637497767806 14.73811758170113 0.0 0.0024587386187316504 -0.007509423352173325 0.0
102 1 5.223548155853265 4.791151340058818 0.0 0.023143945953089915 -0.04616866986056516 0.0
103 1 8.245530966284743 12.540706973311398 0.0 0.0074460943935156535 -0.0966212366553084 0.0
104 2 9.318026081409268 5.189570752231694 0.0 0.04424812697467828 0.03799034244341885 0.0
105 1 9.593670853780198 14.14343991743191 0.0 -0.10518521232829477 -0.1751297680622502 0.0
106 1 5.496604315233841 12.513454260005892 0.0 0.008402577705152244 0.07376976830871003 0.0
107 1 18.749077411181105 6.24605588631578 0.0 -0.013616938257837522 0.00503142058930896 0.0
108 2 5.3390010886876675 3.618133425833191 0.0 -0.011441119111294425 0.036326432467661166 0.0
109 1 18.161885114890097 1.0620026284234887 0.0 -0.1524986740936027 -0.036363281259556714 0.0
110 2 15.423586110311705 18.235874825736197 0.0 -0.0638087709846771 0.014876595717101856 0.0
111 1 5.50851880060818 1.0107066322969067 0.0 -0.07865735273749301 -0.08255821094725797 0.0
112 1 19.623664453121858 14.627820485476617 0.0 0.010072184863384388 -0.004263844831518744 0.0
113 1 0.40044925921295593 6.051508711388011 0.0 0.05436686288515876 -0.06653109921165397 0.0
114 1 16.226191113030673 5.27299115834365 0.0 -0.04428675694600369 -0.1598328930699213 0.0
115 1 7.2647084773109345 11.516430193863275 0.0 -0.0314555482837103 0.010495806937127686 0.0
116 2 12.113462535781398 11.19585677734903 0.0 0.011636230620617822 0.0688577552316957 0.0
117 2 13.160398472808957 13.590493573984043 0.0 0.021279668598072614 -0.02996386801602064 0.0
118 1 5.943799044757153 17.128849033133996 0.0 -0.02593703648548316 0.15590870838227958 0.0
119 1 11.517167003120178 13.299783117499297 0.0 0.04123924096969293 0.024113870715616843 0.0
120 2 11.415435620623944 5.566065733532513 0.0 0.042991467546213386 -0.05299832456602456 0.0
121 2 2.607228562185699 17.445902645148923 0.0 -0.006353795684536415 0.07364192482457368 0.0
122 1 3.1021536037257724 4.207864165732453 0.0 -0.019248481810053838 0.04186284988744233 0.0
123 2 12.007439167310148 1.1013076685311416 0.0 0.05144472813817882 -0.15677372217739197 0.0
124 2 1.4030094222497633 14.070271755735275 0.0 0.029633734835360956 0.01880172385713153 0.0
125 2 19.469196033582197 10.027654274867311 0.0 0.029431505178668597 0.04916947018412118 0.0
126 2 4.217045817879869 4.244886899357891 0.0 -0.020365117522792596 0.10921422115654546 0.0
127 2 10.716092464289723 1.2651165741227803 0.0 -0.038684240372658364 0.07013094135878281 0.0
128 2 8.378056870446555 8.956697196095734 0.0 0.0038188492378065085 0.032165654205866805 0.0
129 2 7.012955454936505 6.487736796279525 0.0 -0.02165424876896817 -0.06190770531919419 0.0
130 1 0.7576435586955796 12.051786494394044 0.0 0.03664984576803191 0.036884910081454225 0.0
131 1 7.973925082253933 2.1675145505272564 0.0 0.034927548444174665 -0.02224967044021065 0.0
132 1 10.135934486536584 14.526047824452009 0.0 0.09912943351395095 -0.07836843843052906 0.0
133 2 16.08203623655292 9.034376815390258 0.0 -0.12391040500906202 0.013116364053545031 0.0
134 2 9.036416243372626 7.8329108561324885 0.0 0.028157825110302043 -0.05788199763922902 0.0
135 2 14.162115776447047 8.250437650309806 0.0 -0.13569236623645706 -0.043622674221996866 0.0
136 1 10.29352707267858 5.713053178249434 0.0 0.0867206249584424 0.0024786987320420018 0.0
137 2 16.712344781062644 12.220191617730459 0.0 -0.006804691131989811 0.01933087009403382 0.0
138 1 7.906877279371689 11.960874390100743 0.0 0.06018469288025639 -0.13350169237069565 0.0
139 1 5.225067199615313 15.346607236485367 0.0 0.07633922256413397 -0.1045563033378835 0.0
140 2 1.5961678800236048 12.77751505804534 0.0 0.01707464710274769 -0.05824619081907006 0.0
141 2 4.413358949913563 1.0953405968683443 0.0 -0.004469896225116529 -0.04865081932208798 0.0
142 2 14.609852743937479 6.187523836919652 0.0 0.04376821504018764 0.009137570606728602 0.0
143 1 18.128008763266845 13.420761252056437 0.0 0.030568120446043966 -0.0045164555228739516 0.0
144 1 6.141326709165358 7.957075942539044 0.0 0.00900560317052577 -0.14327860806211504 0.0
145 1 19.379867040603912 13.987495085649632 0.0 -0.023079499690035737 -0.05769090745531663 0.0
146 2 9.996572266847148 10.977583956748877 0.0 -0.04432821836455582 0.0323267707430455 0.0
147 2 19.046679979602672 11.294905345608028 0.0 -0.014956168423215928 0.004950527344939499 0.0
148 2 3.373659389127701 9.558469384277451 0.0 0.06840685263044696 -0.13693179654847198 0.0
149 2 13.821504612484219 12.535751520607468 0.0 0.012114992297482197 0.06001462064064868 0.0
150 2 5.162534364924055 2.129062683491724 0.0 0.010752107510120242 -0.048228352922454934 0.0
151 2 4.376127237902844 12.63132187059594 0.0 -0.03813716814517329 0.05714868714286394 0.0
152 1 17.509105444326945 6.7750891278650505 0.0 0.12114429925858479 0.05822297737207585 0.0
153 2 9.925248304861912 0.19367194301047932 0.0 0.049042795433227725 -0.025073604456425827 0.0
154 2 14.32740195204051 1.7734571057667186 0.0 0.0009780006038150701 0.04166254625492774 0.0
155 1 7.603142982735055 12.748099853169931 0.0 0.10866135902768861 0.07584336949016757 0.0
156 1 13.626910851205798 9.222987944809127 0.0 -0.26342739622481637 -0.06276496087738216 0.0
157 2 19.742777156776597 17.88183241269514 0.0 -0.07306847015609351 0.07475561698159652 0.0
158 2 1.9354612640964208 18.50162110365235 0.0 0.01592323013279946 0.06544390477860679 0.0
159 1 0.8392773821525387 18.564929424069973 0.0 -0.1780298334332066 -0.007807923889541052 0.0
160 1 15.45336062662036 13.848822079819039 0.0 -0.15331082060519677 -0.028674001799439 0.0
161 2 4.720109769910441 5.862207671601786 0.0 0.05951547221344315 -0.047746123732766675 0.0
162 1 7.294791195766299 2.26974662238612 0.0 -0.022770097702933086 -0.10301499629345952 0.0
163 2 17.918696155912833 11.824773059708605 0.0 0.016655498274077918 0.018608985782578906 0.0
164 1 1.7056155945970277 7.8017152691301375 0.0 0.02300469129575769 -0.007406623057708021 0.0
165 2 3.49692416263146 1.932691840681506 0.0 -0.009372269343509085 -0.06584121312295817 0.0
166 1 18.1799030758763 6.68336325695199 0.0 0.005590796589724812 -0.005373869110047981 0.0
167 2 8.789398152412081 4.008829717644201 0.0 0.024966375644731944 0.05764407744849264 0.0
168 1 2.523497216394193 14.195396935430372 0.0 0.07169541478039362 0.07334225581054318 0.0
169 1 4.7961714342455934 18.80058217943406 0.0 0.01238850458597311 -0.007034088710533978 0.0
170 1 14.244794507967848 10.338377649437328 0.0 -0.02906180793532903 -0.08593055589398313 0.0
171 1 0.8334407778374183 16.416062067710268 0.0 0.024775669497507775 -0.06795102960360569 0.0
172 1 7.32371867283457 16.691744380997786 0.0 0.05572822775684785 -0.1848327310656974 0.0
173 2 11.222943733397509 14.394727431183286 0.0 -0.022920727985261225 0.07476541316614642 0.0
174 1 13.321699415116852 2.2676876137779383 0.0 -0.14590986073725315 -0.12627244892462916 0.0
175 2 3.2840430108056498 7.396234697279174 0.0 -0.11500986449965186 0.012872950478274324 0.0
176 2 15.384552473834079 1.0395507065294172 0.0 0.00041212499783179466 0.05061298140428693 0.0
177 1 5.455343204083781 17.60999139913044 0.0 -0.06632516312533503 -0.06479032543611633 0.0
178 1 18.858927934784692 0.9911165113056171 0.0 0.005142352459306337 -0.05247551597192948 0.0
179 2 15.412111031222958 19.514744114078194 0.0 -0.0867895441695733 0.06144001823091003 0.0
180 2 15.435496430300978 2.3481660165780993 0.0 0.02625357176186644 -0.04443468626662286 0.0
181 1 17.204226391926966 14.164338359184125 0.0 0.06093569478013717 -0.1063430339693531 0.0
182 2 10.855735462774653 6.676698658769938 0.0 0.0005438452550906305 -0.045548021493092276 0.0
183 1 10.995688755902451 17.808305999643366 0.0 0.054890792148236764 0.0383491183084832 0.0
184 1 7.266353970070155 12.170357161040407 0.0 -0.06400982329620344 0.03421938902937746 0.0
185 1 18.654247206013807 9.310086625313964 0.0 -0.018058514489206517 0.06070631511602289 0.0
186 1 13.233722316354584 16.952341129098524 0.0 0.08952166698650997 0.04679790036302059 0.0
187 1 14.576122351393986 4.0715287241224445 0.0 -0.02437413251943914 -0.1173391228670848 0.0
188 1 5.064613635667873 8.428793897899842 0.0 -0.0032201228301078346 0.043122376695640036 0.0
189 2 6.140026402796088 9.525487020027404 0.0 -0.14637262457851496 -0.06810419916145753 0.0
190 1 1.0340209287244995 15.115885003261669 0.0 0.046743079203244685 -0.013359658680538358 0.0
191 2 18.90679844150939 12.660592648711198 0.0 -0.061252454450300045 -0.07770214619633573 0.0
192 2 17.40540516181072 15.255589387641399 0.0 -0.01870876896495652 -0.007590464720766853 0.0
193 1 12.905338542195475 10.38889467083127 0.0 0.0011688796798548673 0.12835935290184394 0.0
194 1 3.104722540416248 2.9491513154549325 0.0 -0.04997906772091315 -0.10727230296915001 0.0
195 2 10.332067378423705 7.81999664197235 0.0 0.010243280253566337 0.034793708906072834 0.0
196 1 15.635685809042057 4.9155892616428964 0.0 0.013976519020461585 -0.024317119443386284 0.0
197 1 6.298915424306947 15.842523623454975 0.0 0.11399548186812822 -0.036309891433193964 0.0
198 2 1.3201432348187474 6.724870085573123 0.0 0.04254872919481173 0.07580122362874915 0.0
199 2 17.69314042114534 2.2425846482644793 0.0 0.006663560174971797 -0.08995156981245596 0.0
200 1 7.363682674667183 7.547911680902274 0.0 -0.07337719027140135 -0.024525695877042408 0.0
201 2 16.56890709078833 2.9176718828023316 0.0 0.03145319953128898 -0.012520477766839776 0.0
202 2 17.36327778144541 5.123665891657038 0.0 0.09656036540992215 -0.062222133624756384 0.0
203 2 17.576878832756165 3.6274886026593784 0.0 0.06295194745601866 0.02524463254268087 0.0
204 1 13.083905407784929 2.88258887048381 0.0 0.04604099444878717 0.06391188987712261 0.0
205 2 8.072079316360373 5.633060420978284 0.0 0.018614668064499344 0.027016017981267123 0.0
206 1 5.291901623972843 18.27141538115058 0.0 0.03838167643769377 -0.012254591890647256 0.0
207 1 4.176243961563269 0.06071642812930526 0.0 0.1627473346722959 0.014141268017518895 0.0
208 2 4.574522642227428 7.277465692508209 0.0 -0.01706444499331924 0.09526478477845869 0.0
209 1 1.487992877295972 8.453338601291335 0.0 -0.12726467107431147 -0.08971173828574827 0.0
210 1 4.790500361145063 19.542592198434928 0.0 -0.07510903398075244 0.014244628080552097 0.0
211 1 14.477796844225105 14.679805305504702 0.0 -0.08037850469863524 -0.031062734496864374 0.0
212 1 3.8177611798031594 5.250792381890002 0.0 -0.18426528121184024 0.003381610362324699 0.0
213 2 9.634251057131134 16.655442472501804 0.0 0.0351211156952328 0.022470039034533366 0.0
214 1 15.661007203093744 12.554919646298435 0.0 0.1154275043171881 -0.004197516920559848 0.0
215 1 17.649991763993338 0.5332675869575465 0.0 0.062125286532903765 -0.025466059495662267 0.0
216 1 2.263946537545527 9.501990662709295 0.0 0.09235490064463099 -0.1259428114779127 0.0
217 1 18.65842275918799 3.7037758206290414 0.0 -0.07998807507038735 -0.07735777983802253 0.0
218 1 0.3379907848604047 0.5863716681725871 0.0 -0.06445530829985513 -0.10952573313277705 0.0
219 1 12.338301408636775 8.596623786290287 0.0 0.224123181733703 -0.05783480627040546 0.0
220 1 12.38960601598048 2.86523306733978 0.0 0.13954658408565476 -0.05576502877501758 0.0
221 2 7.789560372819584 18.37190417036768 0.0 -0.026356359940452694 -0.02462276160079911 0.0
222 2 14.172303826291566 17.619498116830737 0.0 -0.01886951903838595 -0.048812663169287195 0.0
223 1 12.227135696152942 0.025480639705399002 0.0 0.026451210279375328 -0.09779975579280882 0.0
224 1 6.524856652543474 11.212395703001368 0.0 0.11450356890163324 0.025350496901465465 0.0
225 1 18.25440568271486 8.011442343186157 0.0 -0.030500630353466236 0.1145788364999879 0.0
226 1 16.512667049265705 5.891033031010249 0.0 0.008682928835570761 0.023891688691591535 0.0
227 1 5.912595732072352 11.95114808262687 0.0 0.0776300485801302 0.07594811961525687 0.0
228 1 10.345151703813782 17.569182754214978 0.0 -0.012762788402598339 0.018317419890849798 0.0
229 2 15.91572176053642 10.273488266110407 0.0 0.04163574777367556 0.006530450524442948 0.0
230 1 6.554997640063127 15.212135068992685 0.0 0.010125410467069338 -0.09079919533901791 0.0
231 1 18.20922201479559 18.58040340080528 0.0 0.07116494220852719 0.09341506674152483 0.0
232 2 2.606341598662139 8.450138355515113 0.0 0.07084998083630553 0.008215027336594152 0.0
233 2 1.402126064375106 10.154122290263375 0.0 0.05580090461655069 0.004903093947435805 0.0
234 1 4.500843110932768 9.430847559789418 0.0 0.03332226448850069 -0.04059268479599975 0.0
235 1 13.80463403066169 3.994594274825816 0.0 0.09296321624808118 -0.0031680509354417613 0.0
236 1 6.7820257974576315 2.6936374452676124 0.0 -0.017853313854087016 -0.03687480283655438 0.0
237 2 2.623248565073297 10.568742772462613 0.0 0.03772498242473451 0.0452870862300347 0.0
238 2 10.43651660769885 13.447744265938296 0.0 -0.08059517425225209 0.035391761257177835 0.0
239 1 13.753282277390532 14.656049974647598 0.0 0.01998215599779068 0.0012504476900562986 0.0
240 1 15.01815617112022 4.592755543201278 0.0 0.02823438915551277 0.07991148328335487 0.0
241 1 5.461296078336411 7.912519532491532 0.0 0.0580437651273902 0.08596014838072662 0.0
242 2 9.296642195672112 15.238648241905176 0.0 0.03628425053250148 0.08627882482251276 0.0
243 1 5.887216779701476 15.313217736814236 0.0 0.009857189944932628 -0.09027798453566856 0.0
244 2 16.561147015336992 18.939565200704067 0.0 -0.002456313588471215 0.04116196923817607 0.0
245 2 6.515756398847812 12.960528946867308 0.0 -0.008322347199643127 -0.019294506545526613 0.0
246 2 7.6102557437452445 4.472918698810662 0.0 0.0451440883964562 0.05819086555129945 0.0
247 1 18.001681177178078 9.302371325287613 0.0 9.476997341667428e-5 -0.12168538946134239 0.0
248 2 11.678503691791557 7.6857016558388835 0.0 0.03220774272325907 0.09558598861186933 0.0
249 2 14.30506948176422 18.86926048747287 0.0 0.03211781935908919 0.049684845544892005 0.0
250 2 12.025886936978438 15.293752232560575 0.0 0.006435593110797826 0.04607390230005989 0.0
251 1 2.3941138322232476 5.987948243728044 0.0 0.12113895461779431 -0.12509497839949169 0.0
252 2 9.957666681042808 3.6265772521283 0.0 -0.0012505888766593284 -0.04694065670538513 0.0
253 1 5.110045367607906 9.094272822943122 0.0 -0.0006700980993757723 0.13401897180255343 0.0
254 1 2.393660048606239 13.5416587897743 0.0 -0.02872709746797981 0.0625348780539793 0.0
255 1 11.020114879949984 11.418126037238263 0.0 -0.1184511725578146 0.02551401331574866 0.0
256 2 2.1761185620600854 4.797295681506589 0.0 -0.05315771115405833 0.036102134730813945 0.0
257 1 14.22821367759663 3.480652542801562 0.0 -0.09099857531082305 -0.001963940050344088 0.0
258 2 14.30440036685232 16.378451116877336 0.0 0.040999803357887485 0.0776751283524441 0.0
259 2 15.734535485779437 6.6921570496053935 0.0 -0.0014747708302430633 -0.005136696447929241 0.0
260 2 13.985851928475878 5.064467334987703 0.0 -0.04011588008982819 0.06680729724564954 0.0
261 2 14.210702219214019 0.3891326806979195 0.0 -0.06612778165866452 -0.029358713138157615 0.0
262 1 3.3059840192370875 3.5832575349645888 0.0 -0.0336749899782472 -0.06830724661988216 0.0
263 2 8.97866429672621 2.6441098998270105 0.0 0.033974256628798646 -0.011245373415168156 0.0
264 2 0.6193663393388619 7.726248541408881 0.0 -0.00013533643724590282 0.07731847722443931 0.0
265 1 19.66829266274903 5.581990961089591 0.0 -0.029984471537381898 -0.014109170063041495 0.0
266 2 16.360841129725724 15.970359617201712 0.0 0.03357456750938136 0.035196704193202165 0.0
267 2 9.703056042883645 8.899073566928909 0.0 -0.014630336633642332 0.05829094002016947 0.0
268 1 16.831448925515048 6.850566415631882 0.0 -0.009151898015194672 0.06370216195787852 0.0
269 2 2.1023778037347114 15.217923953729462 0.0 0.04061332170506786 -0.038432354096633654 0.0
270 2 17.40325771049731 16.676506336788513 0.0 -0.022266821088457196 0.00565576191031273 0.0
271 2 9.308178933394009 17.91039326208686 0.0 -0.04295762455627514 -0.03552061570872381 0.0
272 1 12.692469838902854 9.174028179330145 0.0 -0.0304146706042388 0.08554707610933912 0.0
273 2 3.162059569933583 16.233860221660095 0.0 -0.0018058596442465911 -0.007439532582053675 0.0
274 2 16.51427063906552 1.6808107124576088 0.0 -0.0071337171371242 -0.0038739075098944502 0.0
275 1 3.027420702733279 6.27708964250794 0.0 -0.03064714813148838 0.002615955620418188 0.0
276 1 5.257482357372103 0.36259940196844964 0.0 0.048043484915747725 0.12209410609194808 0.0
277 1 5.595919485545778 15.949727798599861 0.0 0.01142450754972223 0.038831195616215 0.0
278 2 1.2117229401987963 19.63511496019657 0.0 -0.030907904978282386 0.06427667011467109 0.0
279 1 15.168182441473412 7.687596716755158 0.0 0.04650385882356803 0.0007730578120560263 0.0
280 2 8.186975263321777 10.882374774875098 0.0 0.028505486437727875 -0.023334615776669426 0.0
281 2 0.5898701172134806 9.099406124045693 0.0 0.05336656701118622 -0.025471932437969157 0.0
282 1 14.92252860094495 3.4017254181412864 0.0 0.03193477212718976 -0.03681790817875006 0.0
283 2 16.414482116557817 4.172875854113814 0.0 -0.0020372776521728657 -0.048327460553658795 0.0
284 2 4.471186960405374 16.111306213856427 0.0 -0.14550214841648143 0.07460433745375546 0.0
285 2 14.785138171874042 9.384399053264515 0.0 -0.0385698483203276 -0.09715104080127035 0.0
286 2 18.190861223449303 10.377368219675953 0.0 -0.041462892562796096 -0.030537045556060818 0.0
287 1 15.409311063641443 16.555191850106517 0.0 -0.010140584409901135 -0.04221911803985535 0.0
288 1 12.883960373763937 0.17751256912470553 0.0 -0.024564374222182186 0.15996347121561094 0.0
289 1 15.638585708946685 5.610458603519996 0.0 -0.07221275628488319 -0.05343110143902643 0.0
290 1 15.290234563226004 4.0016032024802435 0.0 -0.01599173355444779 -0.015865451785581568 0.0
291 1 3.5796978020025527 5.863723417384774 0.0 -0.017263994047777537 0.0145507720900729 0.0
292 2 12.175565400761611 6.54555959430248 0.0 0.019515410886770276 0.10847752595486485 0.0
293 1 14.87463283106615 10.535840532408052 0.0 -0.14139288073926928 0.040318077460495635 0.0
294 1 4.956450456196053 17.13941648125304 0.0 -0.0972862197811318 0.09531720130417429 0.0
295 1 5.888436169001077 4.58384631156971 0.0 -0.012322766437653843 0.055956626987676734 0.0
296 1 1.7048603229924484 9.102417159424474 0.0 0.1629104637498823 -0.11619733822401511 0.0
297 1 13.575936302650765 3.3572118068922405 0.0 0.009851472277508122 -0.12271785291708776 0.0
298 1 13.090858210007573 9.731446678651043 0.0 0.09199072360560762 -0.009130436450922891 0.0
299 2 9.519850847476931 6.551532364993317 0.0 0.01947210870180811 -0.05520944978824023 0.0
300 2 12.099185988994932 17.652774463036337 0.0 -0.012655905140879364 0.00015090914034654706 0.0
301 2 3.8675041451531045 17.290247041561468 0.0 -0.0003377640408042008 0.048914411578802344 0.0
302 2 5.823182125049524 19.18436014706407 0.0 -0.04955249219270125 0.02407316975922665 0.0
303 2 0.36085346235541244 13.09310234272278 0.0 -0.015796314686679563 -0.029901121906680237 0.0
304 2 16.22849687794501 14.675405992245157 0.0 0.0017324920155238357 0.072285323944209 0.0
305 2 1.2778071909125683 1.2169135697578588 0.0 0.03362154655682575 0.009337597256707433 0.0
306 2 13.14263424404563 18.317627040200694 0.0 0.0020901781753101174 0.025191499029631612 0.0
307 2 10.33141848494812 18.70851944426144 0.0 0.039492542344587135 0.03619653277373452 0.0
308 1 5.526303350235669 14.744256213136737 0.0 -0.06027988631022878 0.004766401516150469 0.0
309 2 1.9206243559333898 16.443206542405587 0.0 -0.020399602024535713 -0.015482872259291564 0.0
310 1 17.262678598625133 7.381987270877369 0.0 0.040429283611895635 -0.02869328679016158 0.0
311 2 10.970476763574943 16.66523396599412 0.0 -0.04881945356493064 -0.01555813374655824 0.0
312 1 18.872387272824295 8.356268996354977 0.0 -0.018783177132713394 0.02171624562365609 0.0
313 1 6.695618230704635 7.550708187924647 0.0 -0.09120077728807413 0.02502785508329306 0.0
314 2 18.52347666342195 16.1326007568199 0.0 -0.01976563935904769 -0.009955680040219897 0.0
315 2 11.899362864685797 9.946756781503545 0.0 0.013547490898589254 0.05783830331008986 0.0
316 1 11.096516244630909 10.757174012874925 0.0 -0.020183250152843675 -0.06666402292827316 0.0
317 2 4.47836029028332 14.498218648769988 0.0 -0.04510217328367564 0.03733154681442165 0.0
318 2 10.625674078112224 4.639002465583977 0.0 -0.05080547228097805 0.00636269640381753 0.0
319 1 8.375147123061982 14.556942632122926 0.0 -0.03219170927992507 0.03943059632627389 0.0
320 2 12.21064560517611 16.467974100016967 0.0 0.055268874058096655 0.017904683193696452 0.0
321 1 6.64619435884363 11.865391156716736 0.0 -0.040078585161486165 -0.06570599648719612 0.0
322 1 2.6778499359736587 12.916759621922527 0.0 -0.009388437892750462 0.05353041789162183 0.0
323 1 8.491068171463887 0.9797431237774973 0.0 -0.013483466884702535 0.04133124469128562 0.0