ITEM: TIMESTEP
0
ITEM: NUMBER OF ATOMS
400
ITEM: BOX BOUNDS xy xz yz pp pp pp
0.0 19.7609 0.0
0.0 19.7609 0.0
0.0 10.0 0.0
ITEM: ATOMS id type x y z vx vy vz
1 1 19.531258640763852 19.450778584441114 0.0 0.006344737497932673 0.15200596690178736 0.0
2 2 6.1810949225732665 16.61706327729107 0.0 0.013191617200813504 -0.030144841775290986 0.0
3 1 17.925057029748125 3.3329476913765954 0.0 0.17215603652387315 -0.03586991667251315 0.0
4 1 10.42725492497518 16.156160127608153 0.0 -0.015264634685310806 0.039370875973874 0.0
5 1 7.228125396286161 15.947959906031981 0.0 0.04997605144369428 -0.05946677774443381 0.0
6 2 11.266294868025671 18.8704421434534 0.0 0.025409123762243524 -0.09991135150992203 0.0
7 2 0.23258059379943685 4.576370686517291 0.0 -0.029433414794426332 0.08705379052145866 0.0
8 1 4.0795754715532295 16.271744665017305 0.0 -0.05358011711586172 0.1134411829204934 0.0
9 2 7.936631233933507 1.9775817646625493 0.0 -0.044955816533254145 0.044707589371653735 0.0
10 1 1.5755085143735659 9.01157544348969 0.0 -0.03683512801470323 0.03167870758736697 0.0
11 2 4.000791614148006 2.8235578930688696 0.0 0.008845884950811983 -0.04117493721326777 0.0
12 1 1.333244742864158 4.420820009296779 0.0 -0.015329731302398543 0.09429153328078022 0.0
13 2 7.324617536771294 0.8519545540784875 0.0 0.10810052562947527 -0.027530958203550192 0.0
14 2 0.8017549473721574 19.08690469385262 0.0 0.009960222221839324 0.07280452296235511 0.0
15 2 19.350396952164818 2.530506020812154 0.0 9.769601770260079e-5 -0.05648925720409635 0.0
16 1 9.716062983400468 3.7012332158545638 0.0 -0.0518413426258281 0.009356404421544468 0.0
17 1 4.724185556436727 14.487323480366017 0.0 -0.05418076262872336 0.031735345549564094 0.0
18 2 8.705152754955352 0.9064859202719782 0.0 -0.0398302609732655 0.0026144442868636965 0.0
19 1 18.34376242623961 1.0294507637153096 0.0 -0.14754469328212674 -0.20873786743186615 0.0
20 1 16.215262982950893 9.107332760256048 0.0 -0.026504610673566263 0.05459282847592234 0.0
21 1 4.638492527368075 11.844546794975766 0.0 0.053640768814131524 -0.01598266643653246 0.0
22 2 0.1543394617025426 15.418575028399815 0.0 0.025678959189142887 0.0799484252183701 0.0
23 1 12.84735179334942 12.260052520682622 0.0 -0.1383436048370379 0.08733906065598532 0.0
24 1 18.327531152073572 2.1423075223061647 0.0 -0.04887996632137169 -0.04129561891698094 0.0
25 1 6.465896526791303 6.214910650134403 0.0 0.039803849320468807 -0.06669195405021408 0.0
26 1 17.40176321422082 11.627494012881986 0.0 -0.0004511533352865871 -0.0778871477110923 0.0
27 1 18.25998709208121 5.824664846683605 0.0 -0.07676231646726477 -0.14583792385418304 0.0
28 1 6.488293008877166 17.7328451115745 0.0 0.0021472509831260604 0.0664589622885035 0.0
29 2 3.91458666868021 1.5912537275309693 0.0 -0.04051458558580112 -0.051029360964499615 0.0
30 1 18.815032750964445 4.632820040910335 0.0 -0.06497431668654187 0.032240707937510125 0.0
31 1 9.595519311535076 15.460488804705241 0.0 -0.06549220039246142 -0.04182047135001648 0.0
32 2 7.330321365294924 3.086188184248975 0.0 0.06656597763182802 0.011605314019532142 0.0
33 1 14.110810514776114 16.428543620412636 0.0 0.1211675500890259 -3.2692143185236066e-5 0.0
34 1 17.357318083175034 1.381475322158566 0.0 0.022843530156897676 0.014477925671868038 0.0
35 1 14.534112788201936 13.603003754251857 0.0 0.01030360836463488 0.08064807726910792 0.0
36 2 14.669825978071948 0.7407955197262963 0.0 -0.09653312813611084 -0.02179651021438628 0.0
37 1 18.86361474386001 19.54785822967257 0.0 0.03306660213300196 0.08435841767509758 0.0
38 2 3.000256188385235 4.691467188189091 0.0 0.04030397542161471 -0.049225377028174006 0.0
39 2 16.080432166603494 17.099282951594052 0.0 0.033014962689879586 0.035569619529076266 0.0
40 1 14.59196193153443 19.38612427100961 0.0 0.04769739942433005 -0.04822779971456861 0.0
41 2 14.650751948504418 3.1749873040647225 0.0 0.09815725684480325 0.009839728140308278 0.0
42 1 4.033554303054145 12.14348333473738 0.0 -0.024889124193579762 -0.03517757559948637 0.0
43 1 15.902454691223623 19.309902205071015 0.0 -0.11927633527663292 0.16140805213700257 0.0
44 2 12.175969532462185 3.515941958812301 0.0 -0.0001900256856586622 0.08401436717451494 0.0
45 1 13.06516194228258 11.5831960117425 0.0 0.04020381725728175 -0.0035121651717210686 0.0
46 1 2.9152961623117224 15.699567984243926 0.0 0.03183693589277499 0.0965056319397392 0.0
47 2 1.8618048327702172 6.641792495733414 0.0 0.034714289905916504 -0.01120812396815488 0.0
48 2 10.878580541442437 3.319354883783868 0.0 -0.0653135637481932 -0.06084267814484171 0.0
49 1 0.6418516367522971 9.929927641393084 0.0 0.09124226969681043 -0.0295012562759582 0.0
50 2 18.857521538664056 14.719155359387447 0.0 0.04414611458535434 0.012099891219055255 0.0
51 1 9.983568353794535 14.934467139273897 0.0 -0.014714461781795909 -0.07775228023006202 0.0
52 2 15.919858969056673 12.441604400351274 0.0 0.0024095250768049695 0.14009695041410716 0.0
53 2 18.041247734443846 12.558829677483972 0.0 -0.06457687199165929 0.004745464205078202 0.0
54 1 5.073531440371331 3.040580176891752 0.0 0.003217557482244972 0.05699638012914322 0.0
55 1 4.217590178002405 7.021879848755835 0.0 0.014331521045106559 0.034348842611036004 0.0
56 1 16.35287641889777 9.760166171672557 0.0 0.03817941924194834 0.14548966528639287 0.0
57 1 8.11615578111377 5.254748087242382 0.0 0.06982129352029674 0.006791082698410364 0.0
58 2 11.825814685643154 9.504003858237748 0.0 -0.018549944369049776 -0.015407030115712761 0.0
59 2 5.241644764111157 4.892895609878957 0.0 0.01810349379359147 -0.023735029997084257 0.0
60 1 13.233591678318255 13.671062880567076 0.0 -0.08104342142356524 -0.02809467577994003 0.0
61 2 9.387467832153003 16.51295112576069 0.0 -0.031720782890427145 -0.009330751811130068 0.0
62 1 8.906487563128561 10.839934311588332 0.0 0.09756321050039832 -0.08212861192835627 0.0
63 1 9.487480251258917 12.90551769148893 0.0 -0.0815113275735447 0.05197003072191111 0.0
64 2 1.929390959461275 5.309051690374837 0.0 -0.040500323825168986 0.03212482964756289 0.0
65 1 15.25524708196988 19.55890513763069 0.0 0.1203214762345761 -0.12300788989752817 0.0
66 2 4.8017642901242885 0.6452677034206564 0.0 0.015975973395622747 -0.09465431539470366 0.0
67 1 3.206303663116286 19.070867124574292 0.0 -0.01920748236785578 -0.0791983943176451 0.0
68 2 2.947982036684234 11.883675101701755 0.0 0.04315774383982423 -0.04327571102941492 0.0
69 2 2.5431247828886727 9.467437295289908 0.0 -0.022859959284186136 0.05291419118727082 0.0
70 1 10.125543922250447 12.743134748575622 0.0 0.03311018658565243 0.038934831705012246 0.0
71 1 4.997654762605754 1.6978413244137316 0.0 0.06748560860461052 -0.012005660549122752 0.0
72 1 16.024927378560747 1.784270834965133 0.0 -0.1195696481283406 -0.0023989601748734724 0.0
73 1 5.67318517253526 3.3024792213663274 0.0 -0.046500293518884225 -0.1663095755130515 0.0
74 1 17.20760982239308 4.264008359566902 0.0 0.059894556681164314 0.055954100299724106 0.0
75 2 17.227140359959826 2.4511798437368393 0.0 0.09196094378609074 -0.020647126226648386 0.0
76 1 10.759737872993112 12.992384191594311 0.0 0.08382524664242279 0.028138775623667053 0.0
77 1 12.793891471151863 5.871388764007401 0.0 0.05231982039344831 0.08115185418841986 0.0
78 2 14.518220587389251 10.799489453267377 0.0 -0.08650214669774062 0.033771759600559885 0.0
79 1 10.95382114957472 15.765219200722331 0.0 -0.057512591798034786 0.1221537611920278 0.0
80 2 5.699529306854602 12.17591429268641 0.0 -0.004475264191560595 0.01337577995543799 0.0
81 1 2.030585706858733 17.718688142662568 0.0 -0.15737054671189976 -0.06391104569197958 0.0
82 2 2.7209587402495763 0.9596672842000279 0.0 -0.03860488092329208 -0.04669305088908271 0.0
83 1 11.415564829471023 7.494668548159503 0.0 -0.01950828925412007 0.08333513191840292 0.0
84 2 2.728802171623361 13.269926333314306 0.0 -0.042646999331822824 -0.009250307477974675 0.0
85 1 3.642493444074483 18.4136071960961 0.0 0.10655487872181829 0.08179649860504457 0.0
86 1 14.884214878704585 13.024010029783648 0.0 -0.13240642113382714 -0.04346961123074781 0.0
87 1 5.3427661062531735 14.73408819521676 0.0 0.0017868410694222695 0.03242892728154181 0.0
88 2 14.319730508800642 1.960930111094163 0.0 -0.03632208917360618 -0.08205114344559054 0.0
89 1 11.789693557025059 13.789654079530326 0.0 -0.0028501927898084874 -0.04932856591779723 0.0
90 2 10.818096586228426 0.376280343360666 0.0 0.030770434072962937 -0.006755506383664424 0.0
91 2 15.920395634326617 0.665118341480544 0.0 0.0319220352657108 0.03679283938314095 0.0
92 1 1.130425213351229 14.896150865497862 0.0 0.022716927592298444 -0.041456073944358705 0.0
93 1 11.796449578529327 11.512513577935865 0.0 0.07807129459629583 -0.0513082985812154 0.0
94 1 9.670545062018878 12.172706929944669 0.0 -0.07215630873387917 0.049738021381858975 0.0
95 2 12.002237437043 15.476341351135 0.0 0.07232012597710066 -0.06713133758887639 0.0
96 2 3.3154064109121486 8.459607226538877 0.0 -0.02533376396096916 0.053511781709083245 0.0
97 1 17.852770933504722 6.350551273794079 0.0 -0.13268798603115295 0.1010060922290054 0.0
98 2 12.437899070681144 10.624136802852876 0.0 0.016289503870264774 -0.0947430489863534 0.0
99 1 7.3961075937123875 15.294913691829107 0.0 -0.083566108354747 -0.02382980798518023 0.0
100 1 0.988205934063854 16.182414588966406 0.0 -0.11207095516561447 -0.011803145849955272 0.0
101 1 14.435475817381626 4.259984376650995 0.0 -0.011264007146150399 -0.01663854471946198 0.0
102 1 13.729927860091301 11.620197227953435 0.0 -0.10924421866635348 -0.05019014690167595 0.0
103 1 8.902027015335062 9.685311748119283 0.0 0.10522287924284485 -0.03913374295104506 0.0
104 2 11.146965547036917 10.599320648642017 0.0 0.02328454777533671 0.0015822686384224737 0.0
105 1 0.2484798034019162 18.176691624099753 0.0 -0.0013848856859629958 0.012406908658425534 0.0
106 1 15.641178497488935 11.386967999426092 0.0 -0.05120918101997703 -0.08556275888156958 0.0
107 1 19.47920685589399 1.4482231832464048 0.0 0.06604751641858003 0.04006700881658253 0.0
108 2 15.659952777056988 13.748943534985367 0.0 -0.03924442118932239 0.05542469992622926 0.0
109 1 2.9169748506621564 10.527010880121281 0.0 -0.13027506456565113 0.01923766090212301 0.0
110 2 12.267388156192629 8.186262862253043 0.0 -0.02508919771794158 0.06608218837769587 0.0
111 1 1.7569114048543037 15.122261604931902 0.0 -0.07230479026789872 0.014595887007309606 0.0
112 1 2.2380651231372113 15.62113132683231 0.0 -0.1114209102482057 0.015360885517110292 0.0
113 1 16.666928099473672 11.55326635257248 0.0 0.1097868620454309 0.03077364885577965 0.0
114 1 13.969633868676045 19.642215827057043 0.0 -0.03165423630537652 0.08617129631898227 0.0
115 1 12.415053356663014 11.744493703195005 0.0 0.0018487009382315825 -0.03443397674516662 0.0
116 2 0.7417414931873196 8.287478445994257 0.0 0.0014519846650500865 -0.058757261732014954 0.0
117 2 13.114008417621712 16.020640101456134 0.0 0.03599468440456175 -0.034238143136356466 0.0
118 1 13.92081230842767 13.919669035394003 0.0 -0.03157436891391677 -0.043062376741564636 0.0
119 1 0.9019385684086562 17.046780559227887 0.0 -0.038065599353232 0.05118566806984315 0.0
120 2 14.756592155070775 11.974116576586121 0.0 0.038884078222490744 -0.03891099751267496 0.0
121 2 17.796976351968148 19.382484854855306 0.0 -0.06723725601573338 -0.035106788148087556 0.0
122 1 0.7411001523721953 11.97771943439303 0.0 -0.004116028382607291 -0.022946817432244374 0.0
123 2 6.023238704078173 0.9124732195781641 0.0 -0.1097184462303869 -0.1241039178261195 0.0
124 2 15.025571855915379 5.159876647152369 0.0 0.022300364527515416 0.1176522904947591 0.0
125 2 0.7943150984594834 5.755786243946084 0.0 0.03766658873028985 0.005097162064499574 0.0
126 2 15.375347285781418 8.436272111189597 0.0 0.0248045021005007 -0.0857273438877426 0.0
127 2 14.666135216916258 17.3613218916279 0.0 0.08850010369751451 0.02275380200921496 0.0
128 2 5.937644550017913 8.410147696190178 0.0 0.07199264469742053 -0.018845941070973968 0.0
129 2 4.093004641275977 5.3587308716541004 0.0 -0.03315655682651618 0.007231854236609521 0.0
130 1 5.84525011258349 18.325581655385776 0.0 -0.001500513904023559 -0.062207707174570755 0.0
131 1 8.02357507122042 15.567838287175606 0.0 -0.03089841913774783 0.04860732261323006 0.0
132 1 5.2344300406246225 14.048573380289922 0.0 0.17570472896700903 -0.046657809575417604 0.0
133 2 0.827593610169199 2.7481736523225653 0.0 0.00030239685384145373 0.03351922254292956 0.0
134 2 9.128806905225533 4.64669591962616 0.0 -0.011744411298982998 0.019002802711955473 0.0
135 2 1.5911476287642363 13.915372331519343 0.0 0.03414874332241295 -0.03300263611647667 0.0
136 1 10.73648282348787 9.585836030266924 0.0 0.04282682151822507 0.10528504708148066 0.0
137 2 6.077611082105713 13.34130484382199 0.0 0.04670261541490865 -0.06062267415798577 0.0
138 1 13.61213494537345 2.8672216870356326 0.0 0.010966291967115177 -0.07323132699078225 0.0
139 1 14.013928975383324 9.855442842829477 0.0 -0.08529785708560311 0.08576651745368317 0.0
140 2 7.193645715161387 8.05748656676823 0.0 -0.008236909981197211 -0.055643030533890955 0.0
141 2 5.0245107184143505 6.219315097854211 0.0 0.08632424490830155 0.06052724995674576 0.0
142 2 12.370860909664048 18.06564010836185 0.0 -0.10707917676852552 -0.0028002899335691244 0.0
143 1 17.983590059047316 1.583335625264298 0.0 0.08951021149363315 -0.07553749113906712 0.0
144 1 3.937322859234156 6.437695870771697 0.0 -0.07149552082648575 0.08920234436194481 0.0
145 1 6.756132924932195 6.842541354759652 0.0 0.07355583198148735 0.03296743483495541 0.0
146 2 15.877904965701436 6.034838120556595 0.0 0.1257654847396146 -0.04273973184421947 0.0
147 2 17.668649292525128 18.075216369579312 0.0 0.007325616317451989 0.019814145473452262 0.0
148 2 14.222248076969487 8.816147911219513 0.0 0.001956934415237478 0.1065346483322135 0.0
149 2 11.279162833370146 4.53219421736644 0.0 -0.035476611187314544 -0.10962717574533445 0.0
150 2 9.846245345352655 8.18520088323068 0.0 -0.011045383451438955 0.00489206342781054 0.0
151 2 9.977090184265629 11.042034602283493 0.0 -0.05930920043901025 0.008555257635484398 0.0
152 1 6.244972384674814 2.975150429923903 0.0 0.043072284990510704 -0.03159273253603811 0.0
153 2 1.7221276894989261 12.54189140300378 0.0 -0.040577499342808986 -0.015089634045485118 0.0
154 2 6.742014023997857 9.331569234700314 0.0 -0.021333785398080823 -0.07632951908452965 0.0
155 1 5.794065703499673 17.655145574479512 0.0 -0.049911209632783414 -0.19399086411545685 0.0
156 1 9.59397041548289 1.5635572386216925 0.0 -0.008318805244921776 -0.0649150609213821 0.0
157 2 12.30755580605557 6.876168219450439 0.0 0.022723172161104192 -0.02527155016821758 0.0
158 2 6.704994200748727 11.404533234038873 0.0 0.08467724554388971 0.011471012824361146 0.0
159 1 18.750647310731658 1.5840640600372191 0.0 0.014516401866049944 -0.07344930364776814 0.0
160 1 4.106008485136503 7.685176506613446 0.0 -0.04639576580776632 0.095913367267117 0.0
161 2 9.857324560429191 2.6297553222811754 0.0 -0.005305053887078701 0.05166279414212207 0.0
162 1 10.174888310661578 4.192229927816516 0.0 0.005234680887286347 -0.12107317331232355 0.0
163 2 8.479078642213716 12.539893464907253 0.0 0.013835843967110987 0.0031088385080667398 0.0
164 1 10.680727882384561 6.339231972121471 0.0 -0.10639289549843665 0.09045241958884938 0.0
165 2 8.69497671473991 3.113424555607646 0.0 -0.009208819147491396 0.005328050663948508 0.0
166 1 15.579885461037257 10.739962401267913 0.0 0.15439955092274502 0.004524586668772848 0.0
167 2 11.825947400332131 12.677234037729432 0.0 -0.014745945068724179 -0.01680628182310864 0.0
168 1 16.199308319599908 11.052853863259767 0.0 0.0749947136088418 -0.02929842295770393 0.0
169 1 1.4382506162282613 16.672091113670785 0.0 -0.09588911899593378 0.08745508585761615 0.0
170 1 19.246031577395005 0.3103071400837249 0.0 -0.047013203493889294 -0.07757196419727223 0.0
171 1 15.369207304761511 1.6175536526287133 0.0 -0.017192480905815346 0.05608460804789921 0.0
172 1 16.902579671154182 0.20544784322496365 0.0 -0.0025371513254353853 0.010807389159185844 0.0
173 2 1.521721947645785 1.6330502653222647 0.0 0.05557063449321133 0.07542376112870414 0.0
174 1 6.35370476152514 3.643868320768458 0.0 0.024642165050163128 0.07539392123012668 0.0
175 2 16.41874330112289 15.824731292633741 0.0 0.0698491187092874 0.004969410493143184 0.0
176 2 7.912280361234577 7.002907191767667 0.0 0.09045646518248006 0.04888082881031358 0.0
177 1 18.32061694540748 5.15135835752476 0.0 0.00015504324508631783 -0.043575928548097234 0.0
178 1 3.6851646703991303 12.733652111078236 0.0 0.05286143753031347 -0.03642681267102034 0.0
179 2 5.199801029615314 7.4547643893536 0.0 0.1685357631113801 0.0055640334623077515 0.0
180 2 13.122132075080922 14.74598001260709 0.0 -0.03224834371583663 -0.0017551447275372162 0.0
181 1 13.3101652165598 19.52271754676811 0.0 0.07245959003051015 -0.09867368139709426 0.0
182 2 5.053021457577027 15.758212469558728 0.0 -0.07240269223409167 -0.017222480682176942 0.0
183 1 10.149680103237904 9.263147748834111 0.0 -0.096055504303325 -0.008791035212447148 0.0
184 1 17.693783686174847 0.7732577310280385 0.0 -0.01868148163854004 -0.03838503674589721 0.0
185 1 5.865501000050899 14.371309918380172 0.0 -0.08800055480332797 0.0024384809468337883 0.0
186 1 1.1824459332609576 10.335987407345208 0.0 0.06754154214555678 -0.15029382653610968 0.0
187 1 10.34926981987631 6.9254607879938685 0.0 -0.12618827946330227 -0.09613229902620668 0.0
188 1 1.8798687919523984 18.887502006685967 0.0 0.014488770397056467 -0.06389840568741757 0.0
189 2 6.676052925908093 1.998628812076074 0.0 0.05131863756097862 0.007328162479501409 0.0
190 1 9.136220536359044 19.66009498666226 0.0 -0.10175734618601233 -0.005390553457813821 0.0
191 2 6.99589283497523 5.185664334176423 0.0 0.109457325317087 -0.009559064282983976 0.0
192 2 4.750531788880089 18.1933109416156 0.0 -0.02082191446232149 -0.027677577054933986 0.0
193 1 9.68364917625848 0.3154916243251698 0.0 -0.026102983096392852 -0.009538077051910386 0.0
194 1 9.865448576733542 0.9514326349527847 0.0 0.061913980241500154 0.09325960162620442 0.0
195 2 2.7968023685500802 2.205108753861254 0.0 0.026565163216575777 -0.04331879442082048 0.0
196 1 16.662632097642135 3.816020191975315 0.0 -0.06281783107404885 -0.021372632408931728 0.0
197 1 10.451022580886411 16.81172604924402 0.0 -0.013002417914486041 0.07950698004680945 0.0
198 2 16.614442886807918 8.078188930525833 0.0 -0.08736548920409089 0.1423968696066088 0.0
199 2 12.497261567046255 4.824934608220167 0.0 -0.06117012201340984 -0.04179508898751579 0.0
200 1 5.654105803455262 2.6345019579799103 0.0 0.10641928545433932 0.15815325683965048 0.0
201 2 18.917748961216756 6.767759166034171 0.0 0.005195178708679339 0.0407770405596903 0.0
202 2 14.433863177518779 6.328250259640664 0.0 0.043961134101022085 -0.027545333051875637 0.0
203 2 18.589258819868494 17.23105367887865 0.0 -0.054413782403380184 -0.08008601454241987 0.0
204 1 6.322397266708677 7.36421503237699 0.0 0.048683841932219606 0.07993574686366628 0.0
205 2 6.767803372073324 19.466752728069437 0.0 -0.0009979222741320305 0.040359872204510226 0.0
206 1 17.278979886107912 3.559924826488697 0.0 0.07998468807583406 0.12060658604826206 0.0
207 1 3.42405876362518 16.1769982896507 0.0 -0.06922095119691112 -0.024085721482329337 0.0
208 2 11.043548867854861 14.668174348963106 0.0 0.01757194237228618 0.023299503212226232 0.0
209 1 3.7287312983228107 0.5183338816866212 0.0 -0.07528170885765668 -0.1451831335285922 0.0
210 1 16.578403640865677 19.377723374797124 0.0 0.08004371067277996 0.12872389282664878 0.0
211 1 11.04624739003654 16.463724695878838 0.0 -0.01494166567510657 -0.004179340656932688 0.0
212 1 15.691261857186376 2.945922881541337 0.0 0.09245129570338714 -0.12093854763817034 0.0
213 2 18.514921754586876 8.948782089778552 0.0 0.01992334287487192 0.029608477905746555 0.0
214 1 1.9146919528841877 2.850603357448051 0.0 -0.09000041363223787 -0.07194521462320032 0.0
215 1 2.549639207726833 18.94265251596015 0.0 -0.06656436890031592 0.03630412289824771 0.0
216 1 18.474835529179657 4.058711408548156 0.0 0.028839473194394866 0.13210591568676172 0.0
217 1 18.883999616219143 7.869484796565241 0.0 -0.02107579712564929 0.05282017821322823 0.0
218 1 18.215765911925192 7.70933946536727 0.0 -0.007563536341074172 0.11673052354969278 0.0
219 1 1.909004921868478 10.355748038732926 0.0 -0.05994721669210837 0.01211343320222285 0.0
220 1 18.571281440682032 0.4056625875804449 0.0 -0.042235538526458165 -0.05743347065796386 0.0
221 2 0.6488139386151272 6.9944406426771435 0.0 -0.02001102389634533 0.034291021597742846 0.0
222 2 9.000916332168462 5.904357140378068 0.0 0.03249267692087033 -0.01659994274430052 0.0
223 1 8.535041637411073 10.26993341470607 0.0 0.08544578786503655 0.00032482964221511654 0.0
224 1 7.90871311531902 14.855645044171915 0.0 -0.14004965429663319 0.00033784441562043684 0.0
225 1 10.177042531830132 9.960893741640179 0.0 0.08043226134349807 -0.12827476528381618 0.0
226 1 6.043071364589416 6.739381201806164 0.0 0.027207463828433913 -0.006041325782263743 0.0
227 1 10.006297911361024 6.34242523712843 0.0 0.06821798018727354 0.02096920758505912 0.0
228 1 2.2800931504131134 18.33668107365475 0.0 -0.131870008325153 0.05631223886276796 0.0
229 2 13.89319508667895 18.506261149776805 0.0 -0.016290172017177383 0.024008194926110844 0.0
230 1 10.733533427054049 7.472704355190206 0.0 5.024691735112066e-5 0.017175409947737835 0.0
231 1 1.5988972262241516 18.259407233137015 0.0 0.1817444055265727 0.0629552402415679 0.0
232 2 18.61873001572673 15.97259837249914 0.0 -0.02451320770257192 0.0011088418975847357 0.0
233 2 13.372613284753415 17.279568014442578 0.0 0.01066340779792829 -0.005462776253170123 0.0
234 1 13.361711916869366 8.185257109754994 0.0 -0.057687387924877404 0.027113824644485456 0.0
235 1 7.871560232252324 5.89622740785159 0.0 -0.031546162287671604 -0.09750457705428127 0.0
236 1 6.857797290469379 4.093655910147688 0.0 -0.02888891973245527 -0.08060825083168312 0.0
237 2 7.946937030980225 4.179879343438069 0.0 0.0621442532551303 -0.03784360910727166 0.0
238 2 2.7211883856448456 14.593173716995757 0.0 0.04659209120061109 0.0447853102700339 0.0
239 1 1.6988602844744451 3.5222621215217984 0.0 -0.05547053287147256 -0.041264029780747474 0.0
240 1 8.692991641522053 15.641859754628532 0.0 -0.08676819207100789 0.059765293518495105 0.0
241 1 19.55843022458731 7.663825922853401 0.0 -0.026167050960235003 0.022813706118556924 0.0
242 2 5.527466972997536 19.364121057428218 0.0 -0.018504610296215668 -0.014324192551423776 0.0
243 1 5.019658960891529 2.3648992760959904 0.0 -0.06292004502364933 -0.026739002711712225 0.0
244 2 6.272522420849311 15.374734346774467 0.0 -0.009409879266653645 -0.04674275776986053 0.0
245 2 11.03187833408135 8.524038600694016 0.0 -0.11337027309046567 0.1248732991613205 0.0
246 2 10.045142890557436 19.034128407309208 0.0 -0.021226237665042138 -0.0561923481851676 0.0
247 1 11.148941739093976 13.557505868519701 0.0 0.023666107450171066 -0.034625080740540375 0.0
248 2 10.26866708141761 5.292890302703061 0.0 -0.06625260884605046 0.04014214290883037 0.0
249 2 11.145264190761532 17.63419656568403 0.0 0.0037943082525996115 -0.08272960612541021 0.0
250 2 17.349828570372885 16.748177745740083 0.0 0.09164918137143513 0.007610347344972437 0.0
251 1 9.56803033352098 9.619389485168762 0.0 -0.06430874480746403 0.10197784131074998 0.0
252 2 2.9678038914883995 5.975378243737632 0.0 0.06912731205721107 -0.05154107004708881 0.0
253 1 6.7520166479907004 12.500656809043186 0.0 -0.05321116490917204 0.04085665769242365 0.0
254 1 2.7097630045992873 17.809728133935955 0.0 -0.0853070598410587 0.011732714895810329 0.0
255 1 14.6049711800932 14.2638682897591 0.0 -0.02815650109885949 0.014158460750925651 0.0
256 2 18.3955523709727 11.116833763425761 0.0 -0.007426584959216403 0.05630311160184451 0.0
257 1 13.45017269488866 11.013870004444682 0.0 0.05762621047905845 -0.07598129906215259 0.0
258 2 15.211415564768414 9.697695118533412 0.0 -0.03824656740714 -0.03929911458550087 0.0
259 2 3.0969579550312916 7.216661713367055 0.0 -0.04289111533638345 -0.0012325395494866003 0.0
260 2 5.518850756599061 9.602745327891546 0.0 0.08043737981355924 0.007303771092590643 0.0
261 2 3.8967785750485775 11.024193615367414 0.0 0.025974389418494722 0.06238714565956928 0.0
262 1 17.715437650184988 8.22230888954299 0.0 -0.026186449318052477 -0.1543697801201249 0.0
263 2 4.26732682046121 19.312306991330928 0.0 0.06262066590560142 0.031399110131562324 0.0
264 2 2.5057797228949457 16.735650644107732 0.0 -0.09463193999146467 -0.01307386673703539 0.0
265 1 6.245023956031565 4.378794783867174 0.0 -0.011527132666529334 0.009977822549384778 0.0
266 2 8.028809261380086 19.52823539622799 0.0 -0.05017306704425665 0.04620011436409806 0.0
267 2 8.030396969276174 13.719206339550132 0.0 -0.038767873952178115 0.008787374550784812 0.0
268 1 19.57526439024779 17.663599941148526 0.0 -0.12352332886007344 0.03878345259408998 0.0
269 2 16.6409731327184 14.496516380885916 0.0 0.04206119376051679 0.07208446351730659 0.0
270 2 18.901177773973867 18.485995134522405 0.0 0.021011940701760854 0.07444837739932753 0.0
271 2 15.566204236528613 4.041036883605794 0.0 -0.045878550166951 0.033764349270141394 0.0
272 1 1.5208755527920095 10.916483839473857 0.0 -0.10199143962101506 0.0817204427130118 0.0
273 2 4.918778295738471 16.98736503251231 0.0 -0.006382517826805743 -0.04549559216089504 0.0
274 2 17.19077870397837 10.545102727573962 0.0 -0.016617230143222247 -0.017053368221577565 0.0
275 1 9.061443170613156 11.61236800194413 0.0 -0.02141259594759831 0.01759835552758849 0.0
276 1 7.401477476434857 12.386600465450423 0.0 0.005593270532539281 -0.06872801598476634 0.0
277 1 9.150635233013075 9.058256496000471 0.0 -0.1335942578305391 -0.0674311466126739 0.0
278 2 8.95518298433629 14.543178764344889 0.0 0.019828149380568486 0.014985541462601826 0.0
279 1 17.005505392138257 0.8435684292267533 0.0 -0.06665935459650592 -0.03821799388737734 0.0
280 2 15.209643670551284 18.453036742438446 0.0 0.0037321692946509755 0.023724790874107133 0.0
281 2 12.961628897203878 2.011628095283808 0.0 -0.040004406425136564 -0.06218987684188673 0.0
282 1 13.441592217979931 6.874360001179358 0.0 -0.12225212837825768 -0.04486981286700395 0.0
283 2 0.539214597390162 13.027754410774028 0.0 0.06370290478714201 -0.0072899664425172305 0.0
284 2 13.743014168971882 5.211045132657614 0.0 -0.10110025576683201 0.00529243077141057 0.0
285 2 19.03269920795818 13.405945446502555 0.0 -0.005833733041557566 -0.03695156966219291 0.0
286 2 3.829550323698084 13.87710065631786 0.0 -0.0005663098821261685 -0.005469742934762516 0.0
287 1 19.395253035909775 8.302044067405106 0.0 -0.04207100743190053 0.03653962900334922 0.0
288 1 5.131508865157662 3.720441812771236 0.0 0.014219694243781701 0.029800779363402977 0.0
289 1 12.108622850767006 14.37132021726308 0.0 0.059606893079565536 -0.04464319468075767 0.0
290 1 16.336558425425373 3.178687485382587 0.0 0.04865352018512367 0.05716962282484215 0.0
291 1 7.139633327894241 6.2593225601701015 0.0 -0.06976834479374015 -0.02910278884161868 0.0
292 2 19.327928099380077 5.60305230059473 0.0 -0.011029642781856908 0.006478419663740164 0.0
293 1 15.456045886810246 2.302232387197418 0.0 -0.05468823455857847 0.11636216068347319 0.0
294 1 9.016611316665054 1.9658133193876957 0.0 0.1943174587460714 0.06422036431627867 0.0
295 1 0.9702382456285258 17.991288016489925 0.0 0.07887940566040734 0.04147384839196708 0.0
296 1 16.122462376636026 10.370554200175386 0.0 0.02177832904378566 -0.021380588270918308 0.0
297 1 12.797176410231746 13.169964677697108 0.0 0.12496385231002606 -0.018914717802590554 0.0
298 1 17.805677007870905 3.964232162070833 0.0 -0.027383683356209523 -0.061350094990482246 0.0
299 2 16.875147573955807 13.228309533439905 0.0 0.06989724547221182 -0.02777014300190849 0.0
300 2 13.414625786722624 0.8388118845298694 0.0 -0.09071779295413517 -0.026113534961070807 0.0
301 2 0.3137820007375042 10.983888919903153 0.0 -0.005628647963382805 -0.07229578189250994 0.0
302 2 6.944498771963119 14.2702185538796 0.0 -0.0348581102599271 -0.0285534723842259 0.0
303 2 15.541668907177838 7.220408456791467 0.0 -0.034728533950232336 0.005144221289096015 0.0
304 2 13.06016584935781 9.268271286106787 0.0 0.03360112413063031 -0.01256081953586902 0.0
305 2 19.687710070973527 16.597559889792546 0.0 0.030528080141315122 -0.0015801878194866693 0.0
306 2 16.825249090897046 6.811360688514113 0.0 -0.06273250325325742 -0.06526521191795821 0.0
307 2 7.440293575286415 10.332020067803809 0.0 0.03644633240900756 0.024814509131734264 0.0
308 1 5.750144936244254 3.95269075584538 0.0 -0.053266990335834166 0.022334415802945956 0.0
309 2 9.231276802983835 7.091719719560968 0.0 0.04993274826224324 0.0802119532897055 0.0
310 1 1.0085657766846565 9.363040757466628 0.0 -0.11080911730680644 0.023004268598830747 0.0
311 2 3.676762669395733 17.306517354125447 0.0 -0.006381810934475347 0.0454070505185458 0.0
312 1 2.683046636951051 19.580572671454096 0.0 0.2148362005486348 0.05968680349978022 0.0
313 1 1.5213439628664431 9.765747968100406 0.0 -0.05607866454957237 -0.03862066426660074 0.0
314 2 10.80407656805637 11.909039700525156 0.0 -0.024611512712881485 0.08459202395242785 0.0
315 2 4.752804056184142 13.023282923888326 0.0 -0.06285291182810772 0.0182765598025509 0.0
316 1 19.592681560978477 8.930497280185511 0.0 -0.0033827921421836233 -0.05544446476302519 0.0
317 2 4.638728542550143 8.667303322186022 0.0 -0.022685475471312038 0.03575269881883179 0.0
318 2 3.734241673039305 9.672832123410576 0.0 -0.004749354054714084 0.0463121614273833 0.0
319 1 9.074166836174774 13.438883189413106 0.0 -0.04437597748653439 0.06818359443712918 0.0
320 2 11.639353124930976 5.7990306609705815 0.0 -0.03185576917875423 0.06026177218138515 0.0
321 1 1.931213617152186 11.4578284721054 0.0 0.009918378083190425 0.026833795718123204 0.0
322 1 19.143556274025915 3.8498750258861185 0.0 -0.09799471105814257 -0.12066284157783787 0.0
323 1 0.018384358592768678 3.5198863738553294 0.0 -0.0698444383832001 -0.08065630101166092 0.0