ITEM: TIMESTEP
0
ITEM: NUMBER OF ATOMS
400
ITEM: BOX BOUNDS xy xz yz pp pp pp
0.0 19.7609 0.0
0.0 19.7609 0.0
0.0 10.0 0.0
ITEM: ATOMS id type x y z vx vy vz
1 1 7.742600595952825 15.635068756077926 0.0 0.0037939752462586213 0.0034384657202303245 0.0
2 2 18.901222168673083 1.4220513134840043 0.0 0.040443388385630816 -0.026093463102266654 0.0
3 1 16.39227660892322 8.90564352870608 0.0 -0.09117998127717258 0.10986234516276053 0.0
4 1 17.72431505214261 18.57091084114068 0.0 0.1096947343653703 0.03709940617639649 0.0
5 1 8.190606181001883 8.903546312679783 0.0 -0.1619612806520999 0.013851550395774553 0.0
6 2 19.359100830505728 18.410273818275954 0.0 0.034668325454091264 -0.0104040416130179 0.0
7 2 11.615520609903827 9.685426341674429 0.0 0.02895701763781756 0.04604267809206097 0.0
8 1 10.587377804550323 19.107204564413212 0.0 0.06388817535922715 0.0894738894651776 0.0
9 2 15.750886022983174 1.6062459434941478 0.0 0.10760487366816957 -0.009871512164071315 0.0
10 1 14.415278146518903 13.636405134190438 0.0 -0.10496061792823098 -0.07481299813770724 0.0
11 2 0.2307871311144411 2.016655498822533 0.0 -0.08717880647215841 0.033220941131544834 0.0
12 1 7.805826911997934 8.366343261114617 0.0 0.03589998371812023 -0.023439444737373912 0.0
13 2 1.9735132394719253 17.33044179813591 0.0 0.004729469711314717 0.003763866576296828 0.0
14 2 7.2785098504121475 1.9178658981685188 0.0 -0.07166403865801582 -0.10568476990395774 0.0
15 2 1.9777617584553313 14.88540443767074 0.0 -0.0897192964116504 -0.007277598380185693 0.0
16 1 9.544347194492737 18.721145208871736 0.0 -0.050991630778375124 0.07918785173642912 0.0
17 1 1.6762007479251775 10.091168148318058 0.0 0.04591095579811212 -0.12620840202845224 0.0
18 2 14.371450072720785 6.24635207381592 0.0 0.05407540955932969 0.03470821910378388 0.0
19 1 8.726701376959737 7.690926469110537 0.0 0.01699925923558457 0.02772461103013906 0.0
20 1 2.934795554057005 3.033878998005871 0.0 -0.0014573930774343395 0.04498338553434761 0.0
21 1 18.769117311637444 14.076905678385597 0.0 0.040461557848338756 0.11494200204268774 0.0
22 2 16.48986021132521 9.977281604724151 0.0 -0.009024681436111043 0.0956682820549908 0.0
23 1 12.813932405453832 15.079501153241036 0.0 -0.04014089386823442 0.044845402385367786 0.0
24 1 15.350155645838496 5.5811982958542945 0.0 0.10629349234642375 -0.06132147784639872 0.0
25 1 8.452011353264485 18.141316513987956 0.0 -0.006983012804070375 0.043292797840505784 0.0
26 1 12.441357664999684 10.38895022654748 0.0 0.026958096217629148 0.11045775440970897 0.0
27 1 15.731309193610482 9.189379123198309 0.0 -0.007189355942038727 -0.15722330534309809 0.0
28 1 7.5223133413767185 18.93669491808357 0.0 0.03706915566783449 -0.09342621773353166 0.0
29 2 6.195183884070937 8.353332640240508 0.0 -0.07251891576908175 -0.02844307628221323 0.0
30 1 7.249916463610468 8.03217464083447 0.0 0.06502548553994049 -0.058858207663103713 0.0
31 1 1.0538645943505427 10.308746640399997 0.0 0.03179806068403217 -0.08937975478564483 0.0
32 2 18.806437678264466 15.800222514816767 0.0 -0.05273609531789109 -0.011132494878901698 0.0
33 1 10.012967871743934 10.061713404341662 0.0 -0.02320210457517844 -0.11518026734273307 0.0
34 1 4.5570915297017685 1.8579094127133156 0.0 0.03928093270561048 -0.15420762006474778 0.0
35 1 10.360199854806226 2.682442869562868 0.0 -0.10491964630928999 0.00615279526538422 0.0
36 2 17.660722117064882 19.662986360765945 0.0 0.03102595992628877 0.06944976145016091 0.0
37 1 11.5187115959775 6.917735681732767 0.0 0.061165403607712006 -0.03690242082130534 0.0
38 2 11.816697198915142 8.45322255740531 0.0 -0.03280898214491854 -0.038900387821213196 0.0
39 2 14.323048218918087 18.445658414093266 0.0 -0.03180694342582127 0.049219838828548634 0.0
40 1 13.435741423838127 3.0048514461584017 0.0 -0.061523856824322626 0.0908779175604046 0.0
41 2 16.419061135815316 4.23356218551672 0.0 0.005996358483431053 0.019683848142306407 0.0
42 1 5.563467509897378 15.858782407049802 0.0 0.013534324162951347 0.04914852064637354 0.0
43 1 13.733727038534662 13.57199270113506 0.0 -0.02137967730135166 0.10598247187573433 0.0
44 2 7.530330514051398 16.70679344986954 0.0 -0.0090506641993235 -0.04908162254233454 0.0
45 1 1.6803716025211208 6.953030681957878 0.0 0.0339091077847863 -0.07844842391533981 0.0
46 1 9.327608291341038 7.983117112335818 0.0 0.10929512828992764 -0.033402176868626954 0.0
47 2 16.961955033681598 7.939356870181392 0.0 0.007772490191297329 0.038668204179459625 0.0
48 2 17.168420040680175 6.6773989913625345 0.0 -0.039956580681642255 -0.01867245334653036 0.0
49 1 4.704005145774004 14.699045389846106 0.0 -0.03243180433972453 -0.011356256857000839 0.0
50 2 12.237182693061527 17.931936423863682 0.0 0.006436693582241558 0.11520598642902397 0.0
51 1 19.364883938283263 19.541278991182423 0.0 -0.18853766560199095 -0.09445374424786587 0.0
52 2 4.2557869244602795 17.69043797947934 0.0 0.029326041800254117 -0.012024425771371314 0.0
53 2 4.074023345480173 13.604301882947203 0.0 0.1537609048439247 0.01623132993229348 0.0
54 1 5.392096126289654 10.885492923078457 0.0 0.0011012574822729549 0.08420813515831395 0.0
55 1 7.624809522024598 9.308929655895948 0.0 -0.038073085394404016 -0.02029373724114916 0.0
56 1 12.864089810343268 12.602646564119798 0.0 0.03332098293871549 0.032343095077014286 0.0
57 1 6.5525733049253 14.091204175079191 0.0 0.10469740999905039 0.17336089671027152 0.0
58 2 14.607721637852306 7.498099612141971 0.0 0.011763722551608237 -0.03600279992948342 0.0
59 2 17.594951737094146 4.5953022778777175 0.0 -0.0036543519342172523 0.042088503795899665 0.0
60 1 18.11076705428802 2.201242570842697 0.0 -0.017236507315069958 0.02070392738825565 0.0
61 2 15.842075401009847 12.456795202864198 0.0 0.04432691043976941 0.03286657625995985 0.0
62 1 2.4613614325690016 2.5259175619122534 0.0 0.1266947568235252 -0.05299386606920306 0.0
63 1 10.1804520498473 2.038163647268742 0.0 0.04155662029128381 -0.0015736992827964668 0.0
64 2 17.501611347570876 10.720261510836313 0.0 -0.08283544383185801 -0.017521159886276155 0.0
65 1 10.045946958800293 8.168403217810562 0.0 -0.0835249511087135 -0.013894498413001706 0.0
66 2 5.271432837937305 2.756214657454005 0.0 0.04508790005734209 -0.03307299201226679 0.0
67 1 19.252404187728917 12.287814929623613 0.0 0.0020675439394147914 0.010384329982229008 0.0
68 2 14.685244911205439 8.80372170311364 0.0 0.005464080731969627 0.009835114429297919 0.0
69 2 19.180616578465035 6.310327526323177 0.0 0.06519062689901418 0.02435711149081295 0.0
70 1 3.286291308747657 5.678977282943283 0.0 -0.0652636569494176 0.007879229326518924 0.0
71 1 5.916582808727299 3.7774653925779154 0.0 0.0010276383886172243 -0.022098054673904792 0.0
72 1 13.60763684437997 7.096773635086122 0.0 -0.11487579427932841 0.04219022324334297 0.0
73 1 7.786792029639166 18.330729553214333 0.0 0.08149189161777365 -0.11936240064650298 0.0
74 1 14.12047094928061 13.027564543306397 0.0 0.0022605193869984766 -0.18224191853856386 0.0
75 2 0.176525690858904 0.7005471197757401 0.0 0.057208215288460554 -0.03952027425946852 0.0
76 1 6.8469866007268045 14.7012385276557 0.0 0.04949251183137696 -0.05330254132608415 0.0
77 1 17.917733620053088 16.42947614935354 0.0 -0.06341196038115918 0.06961854867451442 0.0
78 2 8.805455075546963 15.916590162689248 0.0 0.03822089815993383 0.09968809382797761 0.0
79 1 8.378958464516788 1.9105041113067345 0.0 0.07304428437011123 -0.11311346112877314 0.0
80 2 3.302860709629164 16.819764066262188 0.0 -0.03968375596450477 0.02109236754277824 0.0
81 1 13.409304133610759 12.98305383777248 0.0 -0.020843223000500902 0.046541126958506845 0.0
82 2 3.9125503755875046 18.91563930383081 0.0 0.00014321469111297025 0.016448178023940992 0.0
83 1 2.1985687446748905 8.959909277918392 0.0 0.025902083085319817 0.05107263528686158 0.0
84 2 0.058040699902182954 16.531581710165213 0.0 0.020162756745867406 -0.025904801247453414 0.0
85 1 14.4280020265036 16.73823265221229 0.0 -0.001541738159145493 -0.02581417026942958 0.0
86 1 5.754983282843248 15.218428438724828 0.0 0.0367615647737229 0.14208879645162606 0.0
87 1 16.20169025084323 7.137620668142292 0.0 -0.02460048672560262 -0.012066768005510606 0.0
88 2 14.373254331470427 19.730479965360257 0.0 -0.004683947040979352 0.0774107834414484 0.0
89 1 6.142296522246986 13.550212069417697 0.0 0.0398676125437136 -0.10346345653045771 0.0
90 2 0.22613717224286103 4.383642330097345 0.0 -0.10567972030767049 0.11317374385105543 0.0
91 2 19.368554553914656 11.137646334056956 0.0 0.022366172059946687 -0.027687578842865487 0.0
92 1 14.816965180015279 0.971218906020946 0.0 0.007751293416629775 0.022924671951350478 0.0
93 1 12.094089299304045 0.39593209440652727 0.0 -0.09283398991917682 0.010204294034939186 0.0
94 1 10.428717801089022 17.93097074475417 0.0 -0.048046343953681514 0.03321913998566514 0.0
95 2 4.923615525196083 8.037690795639278 0.0 0.019297632660906686 0.0063629660185463574 0.0
96 2 12.287400640092681 16.67688892430107 0.0 0.05685078255607703 0.048446456965084095 0.0
97 1 1.7080930439933453 7.6256596046792975 0.0 0.09313435737303584 -0.058562642321619326 0.0
98 2 4.044717934469064 9.006070946400603 0.0 -0.01613839609189316 0.02141759962010866 0.0
99 1 15.464387692199914 6.245377010100519 0.0 0.004222755798333218 0.11504297682884042 0.0
100 1 11.414912917930192 0.35023211321777986 0.0 -0.041193438588259405 -0.03967397474764641 0.0
101 1 5.089970776485639 15.327592413114244 0.0 -0.11790615565178908 0.08766042938042767 0.0
102 1 16.61035797147384 19.281764570093934 0.0 -0.028069757640740794 -0.04913174823585753 0.0
103 1 8.098029826132565 15.04055889553021 0.0 -0.017473966061091948 0.09247868431278318 0.0
104 2 13.818843497326192 11.978471114885405 0.0 0.09516439319832697 -0.1570425414801721 0.0
105 1 3.889452763022021 5.986637565872579 0.0 -0.06649443227687374 0.08417975086141721 0.0
106 1 7.909345288418178 5.66718752521063 0.0 0.028689309328240358 -0.04957171928594905 0.0
107 1 9.106286942365939 18.235074986005195 0.0 -0.0717446306792648 0.04058454951586111 0.0
108 2 18.762735580771015 17.18265006761704 0.0 0.0408947391934958 -0.05840411062616482 0.0
109 1 1.1131228597746807 7.31605573197701 0.0 -0.057703248591747 -0.051916199248077555 0.0
110 2 11.701066172271144 19.06669051068474 0.0 0.06409059342548484 0.05068123822916006 0.0
111 1 13.905602763918248 16.34706459264697 0.0 -0.01331855154184793 -0.08333603528016036 0.0
112 1 18.00332194142631 7.494087011145873 0.0 0.17271801076207272 -0.16591537668900477 0.0
113 1 8.502818568054106 8.305196071769636 0.0 0.05231936882861828 0.05538730050970793 0.0
114 1 10.17809833184639 18.56285461564284 0.0 0.054214054904402 0.14491368981300684 0.0
115 1 13.227175819457694 18.45154264649096 0.0 -0.03369073420137733 -0.06666283552225397 0.0
116 2 6.559763820299812 9.611170439784246 0.0 0.07621380149027847 -0.02002240320787711 0.0
117 2 2.5783333498973056 0.8216408941388591 0.0 -0.1239700742920759 -0.039400874918015985 0.0
118 1 18.52322463167778 14.732631934186696 0.0 -0.11552860314329583 0.17061219107683767 0.0
119 1 16.409072273349647 17.367383427186013 0.0 0.03844187380133586 -0.03033750860252201 0.0
120 2 5.1915787928384205 13.055817297911792 0.0 0.004513545474850358 -0.07074164380605337 0.0
121 2 16.153316840200922 11.162628161920432 0.0 -0.020854198155149252 0.04993944286152407 0.0
122 1 2.514712542052546 8.369054975319928 0.0 -0.015243482909286694 0.017447523539190466 0.0
123 2 15.496770716495718 19.236560796099738 0.0 0.08841907529992805 0.018912252226525955 0.0
124 2 1.6876366241585246 18.53004917066289 0.0 -0.07295636575930561 -0.036390675366012974 0.0
125 2 11.516978840825466 10.933205158917165 0.0 0.04613319847418849 0.004317600233196603 0.0
126 2 9.871873765094193 6.4163620438035105 0.0 -0.049944817330908865 -0.0028824827179005576 0.0
127 2 5.530973696711964 17.54558321035258 0.0 0.04711545062518627 -0.09418117143259591 0.0
128 2 17.734567147198916 3.26753988849707 0.0 -0.05582373499325382 -0.06781371360671604 0.0
129 2 18.092347057811114 8.599199118704057 0.0 0.021044524752853056 -0.013523249952939327 0.0
130 1 14.736360020205959 12.703769553112636 0.0 -0.0787009478385778 0.20273294819921134 0.0
131 1 7.102167399749665 18.405258652117197 0.0 0.007643327999931615 -0.13117832739141008 0.0
132 1 9.230563208713404 7.27799533156811 0.0 0.03762935207969804 -0.03145955578325894 0.0
133 2 2.7751794772805023 7.297576596546583 0.0 -0.0038621956036192944 0.005189413395564762 0.0
134 2 2.4283903782195106 4.255151782876602 0.0 0.005466727833286003 -0.020118402554803988 0.0
135 2 3.299739018943241 15.52871318137831 0.0 0.0365469877120023 0.04434805781285603 0.0
136 1 10.835305841142832 18.45554713592152 0.0 0.023400824014591697 0.05644024061435594 0.0
137 2 12.26753310643228 4.107872254894905 0.0 0.011474579336408802 -0.03715129892441607 0.0
138 1 4.253618793091851 1.2487505021861365 0.0 0.1012577148800665 0.03948381474912333 0.0
139 1 16.846112928534218 2.4925952330064742 0.0 -0.05242698798788515 0.028956087774343737 0.0
140 2 1.4321105286354334 4.962058086711002 0.0 0.022955074623432492 -0.03297832379447712 0.0
141 2 4.308871001385828 5.021389679697315 0.0 -0.0680994994373971 -0.04016133793723906 0.0
142 2 8.072858575688102 4.591446188763998 0.0 0.09474293215385547 -0.03828298389718191 0.0
143 1 16.846205160431854 1.8072553278776056 0.0 0.037878952427377356 -0.07453655885209451 0.0
144 1 1.5280307773532968 6.097929968977312 0.0 -0.16126242060071116 0.06028407801738236 0.0
145 1 7.315327203954035 17.78337242192397 0.0 -0.032324640020457596 -0.03975879608743544 0.0
146 2 9.232894752001267 2.609462985560424 0.0 -0.045246632949128826 -0.005915925148791809 0.0
147 2 11.75660458271152 12.617213756068912 0.0 0.08759261673657505 0.05698754893889165 0.0
148 2 8.002863169933544 3.126228938254744 0.0 -0.05267373122444354 -0.03378352133710683 0.0
149 2 1.3239038892080695 1.2554602601653888 0.0 -0.0956158786385288 0.003601520962930333 0.0
150 2 1.6383416436057734 11.21943831193289 0.0 0.09146108379353059 -0.08461555728532764 0.0
151 2 9.339186754058295 1.3297528285598363 0.0 0.03742339784266325 -0.03744544908231256 0.0
152 1 7.4362955923870775 15.035483505137655 0.0 -0.04755650126812525 -0.07268557918525054 0.0
153 2 5.749031076396258 0.5463409995593337 0.0 -0.02914755184653915 -0.03706816738454671 0.0
154 2 6.522039495056117 10.903754887946342 0.0 -0.007022799368297234 -0.0039571181576113215 0.0
155 1 3.1794386759275493 8.34836148702404 0.0 -0.03223358248865115 0.09405933340225947 0.0
156 1 12.90111038665864 15.745003057406974 0.0 0.02320755553517381 -0.03145030827179502 0.0
157 2 11.189848022753733 3.3715941430478327 0.0 0.06840300591442952 0.056515467749698844 0.0
158 2 13.317271388843254 5.431129836291613 0.0 0.10314908258239515 -0.03822566863296186 0.0
159 1 2.2410627357800696 1.8813874955786956 0.0 -0.13507077469511575 0.02393342739846956 0.0
160 1 10.649575431414183 10.268118322458163 0.0 0.042263387470559105 0.0017838382245955599 0.0
161 2 11.221029802069092 16.104253156715192 0.0 -0.058667372280550266 -0.02034340427316541 0.0
162 1 14.23453350901262 10.846887990021608 0.0 0.06455352639519112 -0.07865217436458162 0.0
163 2 8.986660233358958 10.32589539366221 0.0 -0.030446966217201776 0.002178614605626156 0.0
164 1 5.748480704622994 14.092090265762963 0.0 -0.05120562455642843 0.08051708157396581 0.0
165 2 1.2980526244996011 19.740548876254056 0.0 0.09398592126989898 -0.04490568115297705 0.0
166 1 13.251991293896003 3.654840390539632 0.0 0.06291987358062578 0.06764591010139598 0.0
167 2 9.3456333426233 13.500451029794457 0.0 -0.07295876368784689 -0.0508143193325463 0.0
168 1 11.45708836873145 13.745731230340752 0.0 0.031473933277208065 -0.16770929329806178 0.0
169 1 6.694401947366085 17.508625416173988 0.0 -0.04287369155878886 0.0017584939616131546 0.0
170 1 3.7289308840041104 7.969960219426397 0.0 0.05174079978665821 -0.027361976688417628 0.0
171 1 5.166398821223264 11.968540862314713 0.0 0.010666438497716658 -0.030296706394705674 0.0
172 1 14.609525305054365 17.369481887553384 0.0 -0.023683158822293087 -0.009902395571546365 0.0
173 2 13.710977748829826 1.0250646675535018 0.0 -0.016169780530610838 0.010582316053871063 0.0
174 1 18.50694445050445 5.310323511864092 0.0 0.1043327326441162 -0.012768583020733151 0.0
175 2 4.652954568152307 16.423295894117096 0.0 -0.10569156208510203 -0.09912761568562056 0.0
176 2 10.217407834121435 16.88987781566601 0.0 -0.0599908805758873 -0.008200615424262734 0.0
177 1 11.205260414975232 7.523287442729731 0.0 0.045924911560430486 0.020324794439214464 0.0
178 1 12.784612818402037 18.947325910055614 0.0 0.026634973966165147 0.03882233795494915 0.0
179 2 0.9012324111577493 14.178620720866688 0.0 -0.03237587043500165 -0.0722495670929243 0.0
180 2 12.590769920263153 1.5881829974977375 0.0 -0.05846300675183398 -0.03596848148487082 0.0
181 1 15.382387794675699 0.5670197127515183 0.0 0.0381032142271434 -0.06679367306022728 0.0
182 2 10.54843680440384 9.13082104407894 0.0 0.07442961436190636 -0.05930010536661388 0.0
183 1 0.6396969529182164 10.855397527341687 0.0 -0.05250874542372272 -0.12439779603084024 0.0
184 1 3.3321250355436627 6.347392523563763 0.0 0.02404390588430227 0.06554218550102059 0.0
185 1 1.8388778738429723 8.301733936983307 0.0 -0.15190540718816956 0.1669896269332798 0.0
186 1 3.7041849276596066 0.8315818035302783 0.0 -0.026522711352312427 0.007842556502765463 0.0
187 1 13.278848491573877 0.008584498750912503 0.0 -0.06110459868886519 -0.13304480607030936 0.0
188 1 2.1254280234542215 5.774307861211516 0.0 -0.03475098173402105 0.07776928035606223 0.0
189 2 10.557878831445441 1.0237008474648686 0.0 0.0035115136413109535 -0.01735165995500172 0.0
190 1 6.415686223462923 16.889425149495718 0.0 0.0930331463582534 -0.11913457379881273 0.0
191 2 8.228603041497188 0.7507914800152758 0.0 0.09281957990419898 0.0019308876438051145 0.0
192 2 17.58093024068094 15.349299976341465 0.0 0.0272882177088224 0.02318457479116598 0.0
193 1 2.6829762927888234 10.953471035348583 0.0 -0.14883507758126824 -0.1059694562568307 0.0
194 1 18.76267968430653 0.2990373365810967 0.0 0.09095903427594265 0.006144798157097195 0.0
195 2 6.980615339291399 0.7210113840508818 0.0 -0.009633679226171653 -0.026804622275476187 0.0
196 1 7.160848134698574 4.03097391138398 0.0 -0.08815341826220065 0.02659196528121658 0.0
197 1 10.156779011820982 10.72961827476603 0.0 0.06029977189962337 -0.03211013623604745 0.0
198 2 11.323778258745934 2.0405082722854844 0.0 -0.11463634514364736 0.10644160925814351 0.0
199 2 2.16361606586892 16.109970678579952 0.0 -0.027723106819675557 -0.1277398586133751 0.0
200 1 17.774847527636474 17.71104760957915 0.0 0.0014564919661999318 0.02554692440616754 0.0
201 2 4.1979392935249065 7.019981779199905 0.0 0.010962225208245724 -0.15507034890966093 0.0
202 2 15.18004593314522 10.224721439304593 0.0 0.03949725613056098 0.038495297691708195 0.0
203 2 15.927022167858848 15.496359941409162 0.0 -0.05483775903224113 0.028777677689135216 0.0
204 1 9.903230228573983 4.629286137196756 0.0 0.03641146699403625 0.0009403459486963632 0.0
205 2 0.6798685035723973 17.669458496564065 0.0 0.04525899003821138 0.030850393453407274 0.0
206 1 2.719451554831014 6.101125186517 0.0 0.04214255310792506 0.007990453268006178 0.0
207 1 12.265026167738906 15.532351472790952 0.0 0.07108973744428247 0.02045416467940068 0.0
208 2 10.090250765801011 15.527952244971654 0.0 -0.06726595939582326 0.1064854317271044 0.0
209 1 7.239028687234277 12.953369094337026 0.0 -0.04544626348946571 -0.024734547166375524 0.0
210 1 6.456126833824818 18.17387296248968 0.0 0.030187382420222758 -0.02138012766042692 0.0
211 1 6.240422507663053 1.4950090769606725 0.0 0.08879755586591571 -0.2323777129441286 0.0
212 1 10.845399114595415 19.72529777904451 0.0 0.049525076682959406 0.12685899543325985 0.0
213 2 10.392014599522641 14.221989972641095 0.0 0.05077964814825049 -0.03956773040101194 0.0
214 1 3.596638011138426 2.8749327741289057 0.0 0.021866931895811615 0.063345559165167 0.0
215 1 2.6538002946106296 5.361584827457311 0.0 0.017996291284351176 0.11588225477403151 0.0
216 1 17.249719716008467 18.118664110892446 0.0 0.07817512828886784 0.09375778472272564 0.0
217 1 15.564144325749592 4.940261000497434 0.0 -0.08360226057640606 0.05489440643463846 0.0
218 1 13.091060230601313 10.453065005775244 0.0 -0.05987745963921451 -0.14300794567484704 0.0
219 1 9.757871603739204 18.003684493248517 0.0 -0.03578753975978072 0.09105804257716696 0.0
220 1 7.506047637010306 7.414130652725299 0.0 -0.05411116998651064 -0.1664373940651512 0.0
221 2 3.2776412290850083 9.973112235315368 0.0 0.10106811088966403 0.0904454763377871 0.0
222 2 18.2809506964353 11.725393339836735 0.0 0.05374735439554851 0.10095642415762865 0.0
223 1 11.977930989247643 6.4232735852593 0.0 0.06831611329727752 -0.00403772417498234 0.0
224 1 13.289475691229097 6.519692532633768 0.0 -0.17310263772231613 -0.041001603244871 0.0
225 1 4.224400004346698 2.429842166971206 0.0 -0.06957361464559436 0.06563500154957636 0.0
226 1 14.10282570091518 2.0233001728423465 0.0 -0.00232125190526131 -0.05189353172224631 0.0
227 1 18.35164581876806 18.825020021856165 0.0 -0.16327097895185577 -0.03759579659607586 0.0
228 1 0.9428767831594471 13.064367516138086 0.0 0.019890687726851913 -0.12356993531081303 0.0
229 2 6.717403792086001 3.040477649477592 0.0 -0.022881223690041502 -0.007842535287819474 0.0
230 1 8.262569831502823 9.546075437310082 0.0 -0.015704251012525233 0.05137793080609059 0.0
231 1 2.25877950124863 3.1616382513879864 0.0 0.0015112104657490485 0.0774660586283058 0.0
232 2 15.529909495823942 16.7176226129563 0.0 0.02063683049399921 -0.01630107275830121 0.0
233 2 15.509768392302576 17.991698897569464 0.0 -0.04691242800113186 -0.021437605660533272 0.0
234 1 5.629191271459423 11.503873274942087 0.0 -0.05354543249244062 0.009255982681007453 0.0
235 1 15.976035207469138 3.2428065116819145 0.0 -0.006200798255075162 0.02219314951391558 0.0
236 1 19.214102815092737 5.2105991344033855 0.0 0.15173988272885675 -0.060578116219490455 0.0
237 2 5.671762628363995 4.894427092271314 0.0 -0.012176988121449786 0.04884075135288618 0.0
238 2 14.698277319329955 15.632150804670875 0.0 -0.04774018277472775 0.027486343148865652 0.0
239 1 11.083806503914968 15.027077906460592 0.0 -0.08757631890820705 0.018380113462571238 0.0
240 1 3.501982777107386 0.19663015571069584 0.0 -0.030172253290347114 0.08019527985786083 0.0
241 1 2.2865926411847073 10.363232991327687 0.0 0.12755099939566156 0.03993529792348495 0.0
242 2 4.862012995524495 3.9436425715275214 0.0 0.038866593561702044 0.04178125700013435 0.0
243 1 5.055083996211098 14.110325288654563 0.0 0.07347831631315613 0.07660465673742749 0.0
244 2 12.798510561434268 9.299553046504354 0.0 -0.018146058796911717 0.10743345404890887 0.0
245 2 7.073035575984284 6.415662291389575 0.0 0.044727313374815024 -0.11612903762419174 0.0
246 2 19.609688475806568 14.808687255344022 0.0 0.03635827180288642 0.06693040265739679 0.0
247 1 16.19361471121667 2.6193997491783545 0.0 0.0387161374598802 -0.01838344691648573 0.0
248 2 1.350629315210422 2.527973863334441 0.0 0.01573559646326292 -0.02173411459832338 0.0
249 2 8.344294511234697 6.656141563631518 0.0 0.035990511460349456 0.14629813730020816 0.0
250 2 17.7179856571819 1.1368715574947106 0.0 -0.00970590013608099 -0.08029844750002166 0.0
251 1 17.62987660301696 5.670212834759897 0.0 0.002007303678738443 -0.040126817385916114 0.0
252 2 1.2913115779642679 3.733847359520756 0.0 0.06454033885535061 0.007901065933879256 0.0
253 1 17.52874140669009 9.585927719628778 0.0 -0.11021694345046018 -0.1474246594194466 0.0
254 1 2.108893092344325 6.4373524998061455 0.0 0.045479024725574 -0.060283512505800566 0.0
255 1 10.103953117276724 5.2909453655293825 0.0 0.0806035404818023 -0.04018201759235551 0.0
256 2 16.462622465297553 14.3928649087104 0.0 0.004279301283989777 0.04849248257204452 0.0
257 1 1.1428199598699649 16.61487020924509 0.0 0.1243624814389544 -0.021781187399244457 0.0
258 2 4.593866276289007 0.20603578800882907 0.0 -0.09058731129950527 0.03128373021933309 0.0
259 2 6.488551089037195 19.298871782052842 0.0 -0.06847448391554022 -0.07040839093463605 0.0
260 2 3.747133275997701 11.192839784882135 0.0 -0.014512550666412957 -0.02802313892730023 0.0
261 2 15.684308121518663 8.081439407457154 0.0 0.09058440043981483 0.11093085141239963 0.0
262 1 15.068785715874423 13.31598674055982 0.0 -0.006390528039325793 0.060830221990325034 0.0
263 2 16.53013472104594 0.6286968760796754 0.0 0.008328425629944403 -0.01466422404426081 0.0
264 2 10.571622203881502 13.005813724795509 0.0 0.09387112872625468 -0.013569415003323773 0.0
265 1 12.235474825179294 14.73896442480081 0.0 0.03367608568501596 -0.08246454850004023 0.0
266 2 13.475737656060216 17.38099667665325 0.0 0.015972023160798883 0.026045087053644115 0.0
267 2 9.129408690858744 14.69644497199774 0.0 -0.03505420549317769 0.07635995771232888 0.0
268 1 17.06045801681228 18.75740461661497 0.0 -0.006953135619054719 -0.0451233593487038 0.0
269 2 17.66903663749148 14.058966185916763 0.0 0.03933118840825336 0.05478434935960659 0.0
270 2 14.35307911105596 3.6945742406656823 0.0 0.051098966985622225 0.09607974949521912 0.0
271 2 10.606758771590327 11.75566212606218 0.0 0.04882864517640974 0.0778128088926759 0.0
272 1 13.446666078724839 19.111160383324872 0.0 -0.0898121296274255 -0.07034272075927189 0.0
273 2 8.977514756875273 17.167889194389716 0.0 -0.002430625426612199 0.03430978028909261 0.0
274 2 11.035949794889369 4.653340130318175 0.0 -0.02430762002175305 -0.03434622419312941 0.0
275 1 16.075806931807346 6.491684909638286 0.0 0.0497765275179143 -0.02620336027584606 0.0
276 1 10.84913887121999 6.940000259135637 0.0 -0.02412760697928834 -0.03716376077200622 0.0
277 1 5.395779098032627 14.677956454216888 0.0 0.0046757361335300115 -0.08803822878917986 0.0
278 2 12.101490667264658 5.322550335969204 0.0 -0.010148863960401901 0.0015472798516425225 0.0
279 1 10.770591336695192 8.081253807762941 0.0 0.09465855572407837 -0.000922930765075261 0.0
280 2 12.50145180964844 7.401538059266341 0.0 -0.020756785244597575 0.005195159539824421 0.0
281 2 15.143606958504531 14.449118356898293 0.0 0.10113983047731936 0.043460617063538036 0.0
282 1 7.5755401599643655 19.598905897983084 0.0 -0.08224096177533168 0.061928890536730216 0.0
283 2 3.0243668508284616 12.809273877282624 0.0 0.0124053158614441 0.04959910791329911 0.0
284 2 2.6270992539723594 19.327546736889566 0.0 -0.09590052036413593 0.018006062708215698 0.0
285 2 11.013183967651928 5.901382013427794 0.0 0.06607019441372841 -0.05183127536125918 0.0
286 2 3.0550577684956424 14.266713209421876 0.0 -0.08701151354281177 0.035060435682090586 0.0
287 1 2.7023691392589813 11.66077740927454 0.0 0.013876020532970898 0.08515916877556974 0.0
288 1 13.604487598180267 15.720319422111228 0.0 0.08284377965385363 0.011731803607485191 0.0
289 1 17.084887457699807 9.04023375690791 0.0 -0.06506088128258464 -0.06870137540036975 0.0
290 1 11.677214388565226 0.9667232435908965 0.0 -0.01705808030193914 -0.014433190188061284 0.0
291 1 16.40726621571309 18.639026962384083 0.0 0.08710574680134402 0.015069717967351605 0.0
292 2 14.983916133925826 11.598003840523452 0.0 0.029844235019119703 -0.009392602303299167 0.0
293 1 18.24487825880216 6.842920084562034 0.0 0.006206038887175258 -0.009484945789479664 0.0
294 1 6.84349498494771 7.489784160738731 0.0 -0.10413396774019239 -0.03398719719257193 0.0
295 1 1.084659130745426 6.629813902914769 0.0 0.028318346317109996 -0.029387426773833925 0.0
296 1 6.159924179548289 2.1265909526444604 0.0 -0.05876868213830661 -0.029375392502924553 0.0
297 1 13.445154514148653 2.28627599039514 0.0 -0.026990226092226375 0.00604727195893836 0.0
298 1 16.599229960170224 17.99768824505488 0.0 0.0759288513201209 -0.12896024779713694 0.0
299 2 13.848613173518999 14.64438538319728 0.0 -0.033712366506001464 0.0013292543063663364 0.0
300 2 12.593114398525255 13.718979110656583 0.0 0.01834364733273021 -0.04487364506583597 0.0
301 2 19.619570039157594 13.360042084402302 0.0 0.06957287772279568 -0.0715008476969064 0.0
302 2 7.358254834885222 11.840966280898726 0.0 -0.047437240268792764 0.008525332198292664 0.0
303 2 16.81038035163519 16.362225235441038 0.0 0.01969669254490346 -0.003682228589421936 0.0
304 2 13.954163920338901 9.806018925644851 0.0 0.004146915782051182 0.021110985180595957 0.0
305 2 5.2936221463469435 18.81575452587361 0.0 0.08699738948380376 -0.03923745025846884 0.0
306 2 2.9456526031026073 18.08466461937085 0.0 0.11390231779408196 -0.036442021679484675 0.0
307 2 3.5984274689610336 3.9671718683742467 0.0 0.009693325146403869 0.007709950963236072 0.0
308 1 0.40381195232952916 6.848550721025156 0.0 -0.059777232323588655 0.08254693941407933 0.0
309 2 9.01528506729074 5.441703237780045 0.0 0.03140381280933419 -0.011859124276775835 0.0
310 1 13.433648231313796 4.321147219496771 0.0 -0.02564908307176237 0.06673727444975354 0.0
311 2 14.43946422388109 4.948002577696259 0.0 0.0009990481748667311 -0.05360295406043757 0.0
312 1 7.2524778676894455 8.743172642140859 0.0 -0.016341213670385282 0.010167139011659268 0.0
313 1 10.073648310345677 3.299052021845676 0.0 -0.1268759606461981 -0.09387788445131698 0.0
314 2 18.755784384068285 4.16309265886638 0.0 0.04330886241465264 0.056847518315530525 0.0
315 2 19.012218518667044 2.864609104637644 0.0 0.01155375132344134 -0.05274280148831847 0.0
316 1 12.633742375558809 6.304052322253897 0.0 0.07845640647305768 0.076679928199718 0.0
317 2 18.56483355718181 9.989209520346595 0.0 -0.00996914664388437 -0.07454658946505555 0.0
318 2 0.5832846373655158 11.987936957204257 0.0 -0.022336211567413916 0.08621197025138175 0.0
319 1 9.646557595111464 11.193687127608865 0.0 0.03192284087837456 0.18198611006652166 0.0
320 2 0.48127961650416695 5.725901332744437 0.0 -0.04838229615257398 -0.13463557262858308 0.0
321 1 10.195848921943968 3.968753703281713 0.0 0.009801140813651188 -0.03355384838408841 0.0
322 1 11.114199885548349 17.843170964057503 0.0 0.025983956571039604 -0.026693505456279864 0.0
323 1 1.1393255048696311 8.003362252417556 0.0 -0.04201532152171033 0.15473976876737025 0.0