ITEM: TIMESTEP
0
ITEM: NUMBER OF ATOMS
400
ITEM: BOX BOUNDS xy xz yz pp pp pp
0.0 19.7609 0.0
0.0 19.7609 0.0
0.0 10.0 0.0
ITEM: ATOMS id type x y z vx vy vz
1 1 15.884140175075608 9.028061752081095 0.0 -0.0461456467767627 0.16225654996412628 0.0
2 2 2.8980215898873833 13.90003931651743 0.0 0.04863889833507734 0.0059866389300848605 0.0
3 1 2.8463014694252187 11.869239532717284 0.0 0.08871280416905074 0.0017052190638064705 0.0
4 1 11.039111557242475 0.3758209399372994 0.0 0.010752207013806594 -0.01174246380025641 0.0
5 1 16.399744473406415 2.4928969684991316 0.0 -0.03138870586428973 -0.11883252089013502 0.0
6 2 19.726446138027917 17.826293495465965 0.0 0.06110218838463142 0.05831406517576391 0.0
7 2 6.9422163092561435 15.311987523687185 0.0 0.018582971727866025 -0.00551178224196514 0.0
8 1 3.1861678696996734 0.7452504000248861 0.0 0.09097550152235356 -0.10258675206666337 0.0
9 2 12.805361639094262 4.980173492504786 0.0 -0.10495482620518413 0.0158915224354374 0.0
10 1 1.7990445207542782 13.770174149618617 0.0 -0.053856321850349644 -0.06813817870407185 0.0
11 2 15.239300840672994 16.69382263026484 0.0 -0.03394682688686227 0.006029863908336458 0.0
12 1 13.235544295178478 6.009641999793866 0.0 -0.1083148633111039 -0.09692883822166294 0.0
13 2 10.716617714988189 15.439638009845321 0.0 -0.015025047977385828 -0.044421133234370885 0.0
14 2 9.361720287526571 4.484106104706912 0.0 -0.005001967776115427 0.008161106344198659 0.0
15 2 5.631043105562267 13.251813786766064 0.0 -0.010059787000053139 0.07324638151163017 0.0
16 1 4.084717160256414 17.286635868113144 0.0 -0.03720980996493424 -0.02881739497331091 0.0
17 1 5.128371558941565 1.6035086367815417 0.0 0.03922414818617451 0.05107873730574382 0.0
18 2 2.719786729299473 7.962060080831486 0.0 0.05801844827194984 0.023655436171826714 0.0
19 1 0.37881256007952024 16.80853653908857 0.0 0.0706605058346527 -0.00017749390516961228 0.0
20 1 5.107257800403702 8.530369937280977 0.0 0.09424324719561311 0.0018087310790835423 0.0
21 1 17.26801647306857 1.3563118434157015 0.0 0.057218634669408686 0.052738991775354134 0.0
22 2 9.286576102155982 19.0213336433474 0.0 -0.07247594256290428 0.015347108149432036 0.0
23 1 9.73185574828136 15.94506713788389 0.0 -0.1890608411767355 -0.02150395867288121 0.0
24 1 0.6290189289942048 13.139327731048889 0.0 0.0029015196369812615 -0.012758126356578295 0.0
25 1 2.4225122580911833 14.918099229698207 0.0 0.01211623596772269 -0.015981147111683053 0.0
26 1 17.555346906256638 15.053920100185307 0.0 0.1458415939601379 -0.13026010616023634 0.0
27 1 11.669391981023578 18.692266779644488 0.0 -0.03174887898317276 0.05693925405696081 0.0
28 1 7.075583897124649 13.198066519194649 0.0 -0.011398292438862742 -0.033974757413062724 0.0
29 2 4.980185887461361 10.881468197177504 0.0 -0.023854170907230896 0.011631033758081088 0.0
30 1 9.290517533479676 3.34758533460088 0.0 0.08554978529586071 0.01324717101541356 0.0
31 1 11.956980220114282 6.466395567002909 0.0 -0.007898887324279232 0.08759408520285938 0.0
32 2 14.737027343867911 15.452357910379014 0.0 -0.017451071949226092 -0.0463784563350126 0.0
33 1 9.926386735391134 3.532906010188142 0.0 0.009182758845738047 -0.05103267741748219 0.0
34 1 9.329187821001167 17.81828238765159 0.0 -0.09077305236958778 0.007414282258201275 0.0
35 1 14.923093641679133 9.976894946707581 0.0 -0.04660769687986368 -0.04852005402903045 0.0
36 2 18.637985349172833 3.9781779334949965 0.0 0.0722874173179432 -0.042305844427073136 0.0
37 1 8.742506320507202 2.9432328058758386 0.0 -0.03287301460529899 0.11040218707934114 0.0
38 2 0.7125265038227271 2.2042295432089283 0.0 -0.03317046969956083 -0.010620169245434052 0.0
39 2 5.156334112554098 4.838663049853676 0.0 -0.00258252635320195 -0.0028901544688667556 0.0
40 1 1.2749970936779358 9.833638074740696 0.0 -0.23199383397211978 -0.025552779762323653 0.0
41 2 2.9008732084817113 5.785883269885445 0.0 0.0242199714763193 -0.01852628162754683 0.0
42 1 7.936425120528783 0.22721455104189955 0.0 -0.09198451184395581 0.04926930670837544 0.0
43 1 15.521339175277175 10.301423954915116 0.0 -0.08589674829714007 -0.01699020092011794 0.0
44 2 4.9656804958065575 19.45933995071262 0.0 0.10759763227243963 -0.025837227739862176 0.0
45 1 15.85434833625233 1.9912851616508453 0.0 -0.0077557161795776776 0.0989118996390136 0.0
46 1 9.914563114845649 18.13774133408704 0.0 -0.11588776402180775 -0.13816980327576614 0.0
47 2 14.270202667648132 17.455156761294845 0.0 0.007838583902676683 -0.005020989954603478 0.0
48 2 14.239876286565504 0.22102124432599907 0.0 -0.01948369538686792 -0.0979628281202769 0.0
49 1 16.66215002628608 17.458413332910414 0.0 -0.1614091767500311 0.013650715475070185 0.0
50 2 17.97883019207321 8.00002156216435 0.0 0.00915999026700465 -0.15095688091693274 0.0
51 1 19.581268387653243 5.4237762022381295 0.0 -0.003966612989548874 -0.07445272507985862 0.0
52 2 9.625849754971666 14.766582823557899 0.0 0.009246259734473704 -0.11834655529875134 0.0
53 2 6.9828667457274705 11.642590500157432 0.0 0.036614863276391046 -0.051981495365373595 0.0
54 1 4.299219265151343 18.58852445197432 0.0 0.13514060017862495 -0.04246781506950762 0.0
55 1 4.814796976862888 17.587683563132142 0.0 0.02836157782397028 0.05669201979263145 0.0
56 1 16.699787207536595 1.8555065407890743 0.0 -0.14457346332548443 0.06567688302618074 0.0
57 1 17.156205316165124 19.198084758614105 0.0 -0.005046789294498001 0.015695663891904847 0.0
58 2 8.038001405958857 18.93329106557872 0.0 -0.06010342623029087 0.10383188651689722 0.0
59 2 11.617240801585849 12.052429816246397 0.0 -0.03607829529729599 0.036129344310658465 0.0
60 1 0.6837395067405951 13.849978604016979 0.0 0.05919061410738906 0.0037632849540062017 0.0
61 2 11.334856090856617 10.729510742825381 0.0 -0.04803163176515356 0.032212030428852255 0.0
62 1 18.98991300053834 4.9851890893687125 0.0 -0.05191932334648679 0.026552404688147603 0.0
63 1 2.6287765879188236 1.5031535897485584 0.0 0.015134792173983199 -0.0823070689916295 0.0
64 2 2.2637702191122275 12.783918112422963 0.0 -0.03799412782413089 -0.007037982761208388 0.0
65 1 13.246212408983917 8.70883310030589 0.0 0.06058217423700771 -0.04421176419700286 0.0
66 2 9.758788031485887 2.3823215556232147 0.0 0.053932497306841916 0.030701313558558176 0.0
67 1 4.883516344423777 18.266721033132466 0.0 0.020875283863216923 -0.07110619158366291 0.0
68 2 1.5796421316598206 5.771987103795125 0.0 -0.03931770910955724 0.005793803934630192 0.0
69 2 10.412106780614696 11.62170219381693 0.0 0.1104438697837248 0.040521098124168875 0.0
70 1 19.407295180587738 6.094427546526437 0.0 0.12220410262624817 0.02899079599302277 0.0
71 1 7.739687049632248 10.7352013911901 0.0 -0.027491363401489662 -0.05870292151576067 0.0
72 1 12.499968180953577 6.038623527291578 0.0 -0.007797324972444595 -0.08979231410632287 0.0
73 1 10.846019821271687 2.6343743723075064 0.0 0.05294893873486877 0.152400792318842 0.0
74 1 9.2797948217094 6.825925398204506 0.0 -0.05968771085978419 0.20313411360904055 0.0
75 2 12.670067795254342 12.757310994509474 0.0 0.023137764458510745 -0.014383319795929491 0.0
76 1 4.0119193218493585 13.762812233387262 0.0 0.11900534930216382 -0.03572238926406381 0.0
77 1 13.8943869664649 4.855188020784426 0.0 -0.019754421094300856 -0.009379744919728442 0.0
78 2 16.342298508737755 7.36888615526637 0.0 -0.0007151873738532464 -0.06172601720604478 0.0
79 1 7.763745497037691 13.206410860080469 0.0 -0.176217970308581 -0.07060571832905696 0.0
80 2 17.423932673352372 3.77930813920785 0.0 0.11056610936546173 -0.04325955339447917 0.0
81 1 1.7073756827391355 15.089599398878581 0.0 0.08206977979959774 0.003994504577954321 0.0
82 2 5.908290319536859 18.661973298141383 0.0 0.01783364968232672 0.006816018900367832 0.0
83 1 17.343938400387405 14.431740740315554 0.0 -0.1116534010525134 0.07887850232943569 0.0
84 2 12.48441626736232 10.128535419830444 0.0 -0.07401644624368073 0.0806859245045941 0.0
85 1 9.047498124558937 15.66402604465233 0.0 -0.013247407934286295 -0.1240412306960184 0.0
86 1 7.968642875527243 14.921079497423374 0.0 0.09139590691363653 0.11640026588492558 0.0
87 1 14.9848138114394 14.35781167414945 0.0 0.027631961784706928 -0.09153073383871274 0.0
88 2 5.875910480871639 17.422146635100216 0.0 0.03016025828426544 0.03605475544077844 0.0
89 1 2.7630497212514986 0.19551188839888137 0.0 -0.041788405332474646 0.03148089680282259 0.0
90 2 3.2292782026763662 18.274609298501428 0.0 -0.027490724368966983 0.11266435010374798 0.0
91 2 8.277857378477341 8.297378744164865 0.0 -0.028335764438403105 0.00291688726812693 0.0
92 1 5.694442909953967 6.434459545290833 0.0 -0.03618578584092222 -0.06299322726269764 0.0
93 1 0.28557514351435365 7.769479129705987 0.0 0.029254553065873944 0.02923284846945815 0.0
94 1 13.20642425006769 17.230842751185204 0.0 0.040478996060370434 -0.016774436614874252 0.0
95 2 8.274228492149938 11.71672452223891 0.0 -0.013959222982628028 0.03711215066101373 0.0
96 2 18.803173643026465 10.452991298672025 0.0 -0.05466318560560157 0.03268133025580515 0.0
97 1 12.699728926878514 11.704684940737554 0.0 0.09453954043312028 0.062192268994352096 0.0
98 2 6.067727492993888 16.170883527219004 0.0 0.027792141290852362 -0.03373744184531484 0.0
99 1 2.901610996317906 4.645986356743936 0.0 0.001906988084417548 -0.07291846696588393 0.0
100 1 6.305235411523898 6.663296645476175 0.0 -0.011064960535210486 0.03924109458285123 0.0
101 1 18.63942676178465 0.8933562487398322 0.0 0.042754572683709864 -0.030979745900128437 0.0
102 1 11.75105721289475 7.157795532193814 0.0 0.06247211968324289 -0.004454776294982288 0.0
103 1 11.185582222616416 3.2366508993136605 0.0 0.028073006404369626 -0.10759568260404936 0.0
104 2 1.0405428662695957 3.3808475882267452 0.0 -0.04791666289666668 0.03332836840416463 0.0
105 1 2.691067672093882 19.2789017000926 0.0 0.01805590391272202 0.06296975788972924 0.0
106 1 5.261372378047813 15.439100943884604 0.0 -0.016909465105067686 0.02319397748581001 0.0
107 1 12.472894684068978 1.7605114323318547 0.0 0.059825599665897816 -0.08343672412267714 0.0
108 2 16.243401104883993 0.8723852162778578 0.0 0.014834916326141829 -0.0839095383294623 0.0
109 1 19.031221359887468 2.1208018198493157 0.0 0.04818940437605156 -0.005940107282007102 0.0
110 2 4.3172287192847385 0.8777938732415171 0.0 -0.0842861811457832 -0.005264154653556309 0.0
111 1 9.784810752628955 6.368455363154168 0.0 0.06911102039414187 0.0817763101020609 0.0
112 1 8.12966215502711 17.14539157660197 0.0 -0.03980600814690099 0.06580196706423234 0.0
113 1 4.5915514796779835 15.457828501011257 0.0 0.007056704914948495 0.06370842605349111 0.0
114 1 7.386773805864427 7.5516443299852805 0.0 -0.1516902290673436 -0.008465609955216379 0.0
115 1 2.1734780152962085 16.79355529781037 0.0 -0.08010367576556 -0.07262605354731203 0.0
116 2 19.143618893270137 8.385194991164921 0.0 -0.013135430529612501 0.038249504722425956 0.0
117 2 14.887982377781938 5.369530543695958 0.0 0.02969199996107235 -0.014041015539100445 0.0
118 1 8.195737917311515 6.6285587907496035 0.0 -0.03923336286559904 -0.06992582228958644 0.0
119 1 7.993267215426986 7.256113730542974 0.0 0.024556122324617378 0.037192201499205595 0.0
120 2 11.824810065355202 8.27276854224905 0.0 -0.013026680044987035 -0.0970442135197347 0.0
121 2 19.67607913132269 1.263383662560739 0.0 0.02251893647239214 0.08773379330486067 0.0
122 1 17.033167873391566 0.0933882874327288 0.0 -0.0986110226463786 -0.07096509369267048 0.0
123 2 10.875971430495582 6.419761531962437 0.0 0.10117900120399702 -0.015621176156720097 0.0
124 2 1.2738302580410645 17.452759249036387 0.0 -0.07392092737786857 9.696348178384104e-5 0.0
125 2 11.974719244026906 4.047973935470623 0.0 0.008591791129264573 -0.018068457219119306 0.0
126 2 10.216948315427333 5.3798691484486385 0.0 0.06215905782342435 0.10165912428823667 0.0
127 2 10.969428813589573 17.85163042837223 0.0 -0.016888067052560535 -0.07967316956388482 0.0
128 2 12.190149845394927 17.60012972589407 0.0 -0.002587531051482523 0.03458820754490254 0.0
129 2 9.941497117405936 0.31923026146949 0.0 -0.006340472927447675 -0.056924003371560596 0.0
130 1 16.03344618153452 5.4125676697466325 0.0 -0.057581772028932075 0.11352729751920479 0.0
131 1 3.3970167727201916 17.212365585392433 0.0 0.10648857802799322 0.0541546266304394 0.0
132 1 5.274839993857638 5.913414291716098 0.0 -0.05630236777446429 0.10359969558315742 0.0
133 2 3.2831079003899295 3.1175312875592787 0.0 0.013625153245043813 -0.017843087231014645 0.0
134 2 8.902503166760894 5.759023393938597 0.0 0.01275935918890821 -0.08306559388064573 0.0
135 2 18.252206918438528 12.900288820642901 0.0 0.022364363164003184 -0.05752121413469166 0.0
136 1 11.114307886952702 7.4818876887361965 0.0 -0.09599865719980148 0.0037784370694153974 0.0
137 2 19.132942612033407 14.748205126307695 0.0 -0.05055278433503657 -0.019055939667324745 0.0
138 1 12.883996687147834 8.159420391081435 0.0 -0.008893525885033265 -0.04279479880409155 0.0
139 1 13.261537501392507 2.7212518471461604 0.0 0.046564389900066776 -0.020649444099810055 0.0
140 2 0.5571840240505098 8.911194337599762 0.0 0.07026888722012241 0.021911905445328284 0.0
141 2 7.091680138055566 0.9340886282749646 0.0 0.02480680442189758 0.04911120058707976 0.0
142 2 7.073645304534749 16.914257879757574 0.0 0.01036268574770174 -0.05082259208246801 0.0
143 1 15.293014095094927 8.695642198878156 0.0 -0.1294736266814111 -0.1313357207521627 0.0
144 1 18.03410182712722 14.56632267708173 0.0 -0.03414883085151294 0.01130173951586873 0.0
145 1 6.847616036248902 7.112462881335977 0.0 0.026220398774573675 0.029171004540411355 0.0
146 2 3.6822771830862773 16.14464380615852 0.0 -0.010458512595375561 -0.05497629416910208 0.0
147 2 16.997756005324838 13.173028268949336 0.0 -0.0475901118914297 0.0353593132476723 0.0
148 2 13.403950247304058 3.8282007940099296 0.0 -0.07520071519275363 0.03779627356680519 0.0
149 2 3.7392590967530075 19.522296669693723 0.0 0.012307284071197131 0.04364140920314751 0.0
150 2 12.877490771253441 7.074473081992368 0.0 -0.008294713064583794 0.07889701084734889 0.0
151 2 8.114115392562862 9.548735841438146 0.0 -0.044111301653790416 -0.08133401568811936 0.0
152 1 2.2123373257947003 11.634238712021483 0.0 0.008368723466620431 -0.023082852830247674 0.0
153 2 16.24725101326841 4.301168152312172 0.0 -0.06029710420560468 0.08026897950752863 0.0
154 2 9.388750157681889 9.246949771604703 0.0 0.0026788352129889334 -0.02459771073891589 0.0
155 1 12.642263145234079 9.01659266687708 0.0 -0.019350755664502985 0.036979868249459556 0.0
156 1 6.93940569202935 9.597505854171677 0.0 0.03087355815512349 0.031885650803960455 0.0
157 2 5.702804463554836 7.578676833275937 0.0 -0.028997095129687366 -0.06508143194490484 0.0
158 2 8.586658583767575 13.96841495368508 0.0 -0.0265940306748927 -0.060103924456770576 0.0
159 1 16.810914030391537 18.628894982755636 0.0 -0.10565337413139032 -0.11314657954341108 0.0
160 1 15.281487865970032 10.934744278151689 0.0 0.08355994696786086 -0.04922649687088441 0.0
161 2 12.192628367709835 2.8175431265781317 0.0 0.091249520061984 0.018212138586277914 0.0
162 1 16.170683281012913 18.79423520597151 0.0 0.022529904669548476 0.007689697844511668 0.0
163 2 2.188458716773993 6.844631574363289 0.0 -0.058776238793799694 -0.02807399966831764 0.0
164 1 19.084924328326053 0.3553417449781819 0.0 0.1267429067644356 0.18020134807300076 0.0
165 2 4.201269432480282 5.702725416075774 0.0 0.10839382208593488 0.062391892133987055 0.0
166 1 19.43253294798166 15.779471266425327 0.0 -0.0284681764705355 -0.029718188076931884 0.0
167 2 4.942838041018851 14.374790412403854 0.0 0.08498989663248147 0.01103702920985301 0.0
168 1 11.468126196831609 19.629182757395714 0.0 0.0872484003181464 -0.07549035179430212 0.0
169 1 15.316046714033368 17.7799256794535 0.0 -0.06509673008226492 0.023216982268603657 0.0
170 1 19.25305913496729 9.459229558333105 0.0 0.017648495664545592 -0.006706909466685624 0.0
171 1 18.36907141825334 5.24434744065641 0.0 -0.08554717709748783 -0.02430364014697405 0.0
172 1 16.54780216895889 6.044627359112032 0.0 0.02638897395012947 -0.05147227870564914 0.0
173 2 19.549845442011037 3.0781206211696115 0.0 -0.018564246540880288 -0.029626230249029856 0.0
174 1 17.38298802197284 7.102384029195443 0.0 -0.14128550523193242 -0.10538035225572778 0.0
175 2 19.298503037613543 19.033120215533334 0.0 0.02112653498526739 0.07710107875252022 0.0
176 2 13.917140609755172 7.831149996706216 0.0 0.027686031777507947 0.011531136644877536 0.0
177 1 19.519125538078573 7.348762835575592 0.0 -0.015137080986384055 -0.022748676415912578 0.0
178 1 17.050530706824066 6.505243587009365 0.0 0.003853173497252454 0.04202490370829811 0.0
179 2 11.450360277143162 9.457258079506401 0.0 -0.02042256279157108 0.011853948624995603 0.0
180 2 15.965052337255067 15.710389869154056 0.0 0.13022286382507772 -0.036073483766519705 0.0
181 1 18.592907725532232 1.5901132707926322 0.0 -0.03485016173008064 -0.024972191073043572 0.0
182 2 5.794472837098688 0.6701277722469228 0.0 -0.014859222837476949 -0.018513268538941884 0.0
183 1 6.5995561803300875 12.697570383662596 0.0 0.08118843101803917 0.0031321112263663544 0.0
184 1 8.721155552888028 16.814759245914043 0.0 -0.06079159433187013 -0.018168471548618528 0.0
185 1 0.20943473614275568 16.167152055222502 0.0 -0.014467706333791677 0.07147782031470772 0.0
186 1 10.507428768773561 3.2039231582666723 0.0 -0.021369949106240186 -0.09971624913188529 0.0
187 1 9.311628969973887 17.14004364051493 0.0 0.07805699488484599 -0.0529914028831804 0.0
188 1 7.5550375950010755 14.413395748237932 0.0 -0.06354967119355778 -0.0017794860638390378 0.0
189 2 16.542243274173927 9.873191512794003 0.0 0.021055497190995812 -0.0201307481378973 0.0
190 1 4.5303923415544345 13.311390655250191 0.0 -0.045982005207948005 -0.009666510391530271 0.0
191 2 15.104368117331752 7.577195663320881 0.0 -0.07872578785524928 0.023738989006011242 0.0
192 2 3.457868486901071 6.910679851653153 0.0 -0.057684714632813314 -0.061581658217000596 0.0
193 1 15.55297881525233 14.693739554259393 0.0 -0.004633323750938845 -0.01057400761443024 0.0
194 1 16.52116575428425 19.3924196314334 0.0 -0.07022781286960669 0.1382850826100692 0.0
195 2 13.785818473862985 13.214111833721343 0.0 -0.012796109910001921 0.059860472558803966 0.0
196 1 2.2896187734769398 4.892987079875155 0.0 -0.1280090313256536 -0.08498947377725456 0.0
197 1 17.100648934344246 18.030279839512616 0.0 0.0665334044375056 0.21705519331079184 0.0
198 2 1.9928899747356306 18.458517314955998 0.0 0.03146670588037457 -0.12101533976998516 0.0
199 2 4.889668726087577 16.510706506499268 0.0 -0.023040174741701187 -0.05795066699510163 0.0
200 1 19.234950065008405 6.7470903585283395 0.0 -0.022424344953226955 0.016787420939542073 0.0
201 2 0.6006990850347809 15.063451144850944 0.0 -0.009403690297466195 0.052237903036659615 0.0
202 2 6.894739011432232 19.485324590109197 0.0 -0.034301432624607484 0.01244764814692956 0.0
203 2 10.57983442003805 8.533340150161301 0.0 0.00502063581471744 -0.06268273482036774 0.0
204 1 17.32445229384662 2.0397902547351565 0.0 0.13648801835390587 -0.01318806500614122 0.0
205 2 18.1667736444601 2.7561011240074342 0.0 -0.006227516780119795 -0.038625279609607856 0.0
206 1 14.713000607404862 10.609086960984074 0.0 0.015973971390694182 0.02432393313698269 0.0
207 1 15.090047397516829 0.9037823521544388 0.0 0.21205335130740105 -0.08249532374107897 0.0
208 2 3.710334779402126 14.830772251243497 0.0 -0.11964152002433803 0.0035560988197603904 0.0
209 1 8.308892047208012 4.175337298815224 0.0 -0.021184607994003884 0.05255653409897584 0.0
210 1 2.8244361196876486 16.84464348535791 0.0 -0.04038703618508781 -0.020183257415813834 0.0
211 1 4.3627791924691754 3.275661171641615 0.0 -0.05270185708245977 -0.13060713557506762 0.0
212 1 6.0667805235515 12.256841642125684 0.0 -0.002441977471491931 -0.08640308229508757 0.0
213 2 13.91256007172144 14.513983028361416 0.0 0.004117513894905197 0.03141204107135992 0.0
214 1 6.916378371295437 6.454486823972524 0.0 -0.08499933377689387 -0.08867543617915108 0.0
215 1 14.162332010058512 10.235288042571186 0.0 0.08377158182223352 0.053297253111050664 0.0
216 1 16.850313209487606 14.923800743888862 0.0 -0.0260327433845442 -0.014115684730053165 0.0
217 1 0.1633439590941735 12.606091280948702 0.0 0.09656228235050444 -0.009155430356303973 0.0
218 1 9.733736921685177 16.63792623732418 0.0 0.016042554946270698 -0.1793292703607621 0.0
219 1 9.144298563885824 16.318729483004226 0.0 -0.060791709716728065 0.09867853122079373 0.0
220 1 2.5148685830007147 0.8353530380641047 0.0 -0.017414378030735006 0.02748004559282397 0.0
221 2 4.143701088726531 2.166431734890698 0.0 -0.0343659315908356 0.07059431622136504 0.0
222 2 7.3909200240800415 2.1294040676098778 0.0 -0.10811385873791214 0.07154457794681303 0.0
223 1 17.745279361435703 13.92895717716359 0.0 0.1230693786875972 0.11000547821179509 0.0
224 1 3.055974645531644 2.026767785224869 0.0 0.06329076757269504 0.13358741327265442 0.0
225 1 17.483194927973216 18.614248035093713 0.0 0.12165851229706758 -0.08599278121211583 0.0
226 1 18.38987301448698 13.979523395202897 0.0 0.00536401749679542 -0.02635044456955571 0.0
227 1 16.380918009672374 18.093873399867526 0.0 -0.10286351554426162 -0.10521145319322715 0.0
228 1 8.962105747171828 0.8164421263855937 0.0 0.1281954778471872 0.06439845082755691 0.0
229 2 3.5361014265371273 12.758915802568565 0.0 0.020691376115262297 0.003954535188022349 0.0
230 1 18.835681688894258 7.3115949151949 0.0 -0.02279658150109343 -0.21059087513482064 0.0
231 1 15.964314367457696 17.56042158995351 0.0 0.02623001192143181 -0.05106162547905244 0.0
232 2 11.949897525320493 16.08210250015848 0.0 0.01833671519078187 0.0728625258378295 0.0
233 2 1.2974172225556657 16.15242691935494 0.0 0.043082499881749725 -0.003220777534413302 0.0
234 1 17.21757360378562 4.895769908969428 0.0 -0.08081696741525762 0.06536466051213162 0.0
235 1 13.77331827501564 5.538294162910635 0.0 -0.013617186275600253 -0.12304878255873425 0.0
236 1 13.52983500137175 16.646981149867056 0.0 0.1146206967714278 0.010031965693550676 0.0
237 2 4.309823798613928 9.291290346230644 0.0 -0.0463957410698192 0.044342036962300484 0.0
238 2 4.703927661593751 6.871003192102394 0.0 -0.02775847981423502 -0.04509001262867689 0.0
239 1 8.109112244151781 17.810275863467993 0.0 0.10835175710694922 -0.08012252746778577 0.0
240 1 8.25944794161797 0.814122512082632 0.0 0.09225760110205854 0.018533233557451345 0.0
241 1 2.7826656953596878 11.198346477055164 0.0 -0.06978968305115334 0.015836923646005877 0.0
242 2 12.794914839757533 14.028563334706488 0.0 -0.018051827537364375 -0.04910945629972108 0.0
243 1 7.195278027448717 8.245646446791874 0.0 -0.03643354711143251 -0.05032258361908504 0.0
244 2 3.581512880553946 10.358145063957718 0.0 -0.006992261180706105 -0.037773992583744996 0.0
245 2 16.08873184809631 12.345703215855046 0.0 0.03337999815720671 -0.004266630652407827 0.0
246 2 7.219521320899803 4.4757831031516275 0.0 -0.01710762706590643 0.022066337587975878 0.0
247 1 8.608525190189548 15.124021271272001 0.0 -0.05224646604930171 0.07147658132652429 0.0
248 2 17.11899115674771 16.032460842615553 0.0 0.04557201668555477 -0.07317680455569113 0.0
249 2 5.461374796879178 9.690203779899505 0.0 -0.0039973063293125225 -0.03753157656477847 0.0
250 2 15.517248300989037 3.1461061647211546 0.0 -0.04238849404439972 0.01643545065707543 0.0
251 1 15.315332898986043 11.597899690655293 0.0 0.0733395139259183 0.06713242829433494 0.0
252 2 10.609515932228474 1.4142332847813328 0.0 0.0048272234495432016 0.006424680934367631 0.0
253 1 18.751654418235066 15.756577568414304 0.0 -0.0337573348703548 0.07101009204184044 0.0
254 1 8.726973826320528 18.106053652496072 0.0 0.03108690308599579 0.12983758163591805 0.0
255 1 9.695821406769467 13.639993854913318 0.0 0.02536858572594196 -0.10518910775253595 0.0
256 2 13.757777694376346 11.920162718416227 0.0 0.08378044352244722 0.05079534236054484 0.0
257 1 3.475072330167779 4.193985419059284 0.0 -0.09015261366676881 0.006232117132299402 0.0
258 2 10.687448156500302 14.180265861968278 0.0 -0.026929114361173737 -0.011931870887292985 0.0
259 2 0.6074801888081173 6.609901706625132 0.0 -0.033719210759267475 -0.0040794817458525935 0.0
260 2 7.060419771984199 18.1373520307697 0.0 -0.03659609155298799 0.024545680287302703 0.0
261 2 2.0320150212138666 2.4487571589063473 0.0 -0.0073467647640025726 0.024974198742617793 0.0
262 1 6.109515156930307 4.269624803025621 0.0 -0.033839150359636416 0.028304863806440577 0.0
263 2 14.708810086150695 4.112755714868716 0.0 0.03001980902086168 0.08299648156742538 0.0
264 2 14.224531557417384 6.557403157691638 0.0 -0.045108860955253884 -0.006109752134771335 0.0
265 1 12.024333492998316 19.26663965948547 0.0 0.06759370093552847 0.005311152716199276 0.0
266 2 1.3452137089289733 10.955649337383667 0.0 0.03494202860674644 -0.005816681493013804 0.0
267 2 7.6868122670411 3.295063468326394 0.0 0.030276031249325045 -0.0325390045102386 0.0
268 1 2.195133127917126 15.563481345760616 0.0 0.12973824433781664 -0.056839289771826416 0.0
269 2 18.532099830645237 11.6471962829417 0.0 0.03857167318780687 -0.019274509000727292 0.0
270 2 1.8744644715799066 8.934030450961455 0.0 -0.048674264098054545 -0.06321480103316002 0.0
271 2 14.874443147965648 12.599874467879841 0.0 0.07767193273278714 -0.007307633461075258 0.0
272 1 7.26675557093058 8.912805668271702 0.0 0.070454174927983 0.026480116134044166 0.0
273 2 1.5024201910979076 1.226642359876728 0.0 -0.0016934005238174437 -0.02429365335863805 0.0
274 2 2.243570261568293 3.774944523893214 0.0 -0.030290975716681982 -0.019284992439711126 0.0
275 1 16.354530257386596 16.84436999919922 0.0 0.06795990475488475 -0.0185541117323569 0.0
276 1 19.269143622402478 12.445271176775202 0.0 0.017944384960915955 -0.06074301657418341 0.0
277 1 16.21362718891785 14.657107133610694 0.0 -0.018360432128350278 -0.02872364651270929 0.0
278 2 11.820599682494413 14.802096949164396 0.0 -0.025939155911929374 0.07869770438725882 0.0
279 1 12.339824951210957 18.68147464229582 0.0 -0.043587218724622005 0.038495991946158506 0.0
280 2 18.12002252351948 19.631387858438366 0.0 -0.005485037844363098 0.04932177817497543 0.0
281 2 13.221746497799971 15.593690737135544 0.0 -0.07295510900998511 -0.017537913836542268 0.0
282 1 2.442957982311856 17.42731680516917 0.0 0.0024820345734176625 -0.09304172333197007 0.0
283 2 14.324091323241554 2.8448634501794516 0.0 -0.01715973334425289 0.05206016227280509 0.0
284 2 9.34946378371972 12.566931194617155 0.0 -0.042263535927266185 0.02406770180303133 0.0
285 2 10.80119137996937 16.649160738008085 0.0 -0.050044625014673695 0.04835385559752135 0.0
286 2 1.1884056004857015 12.189451952238656 0.0 0.053602875971412924 -0.01861959562024076 0.0
287 1 1.2735687248362833 14.181574158819883 0.0 -0.01687817821922777 -0.09936680235684409 0.0
288 1 13.507629201071895 10.630259136799538 0.0 -0.04710412652455486 0.06333274460899672 0.0
289 1 5.852548878039541 11.610817421768786 0.0 -0.12432521021284176 -0.06449322070226386 0.0
290 1 18.9305075134603 5.6352990617435825 0.0 -0.014263530807325508 0.016146585021132035 0.0
291 1 8.291866788762261 12.827465255747736 0.0 0.018294362030880727 -0.03608152156126431 0.0
292 2 7.632677775555732 5.683267688289679 0.0 0.06253942474528533 -0.059389120987957476 0.0
293 1 11.336119430205759 2.1928128359653414 0.0 -0.07877135582655215 0.0945705273056612 0.0
294 1 12.999449081624649 11.106384100657309 0.0 -0.05713008151057524 0.09245521496634887 0.0
295 1 8.66710092340694 7.13290726101425 0.0 0.06328106674201626 -0.02008103981873156 0.0
296 1 7.453104445189828 13.774112127812964 0.0 -0.0011399749288639018 -0.10895344323399356 0.0
297 1 8.302472745301685 4.831361739972006 0.0 0.08647109842662445 0.06685626150645607 0.0
298 1 14.140619233827804 16.353480928159907 0.0 -0.04930410619560041 0.013833964303008065 0.0
299 2 1.701998064733349 19.74040649863205 0.0 -0.14084196345977504 -0.028073628465582263 0.0
300 2 1.2574758359516058 4.595325830927561 0.0 0.032098457514637614 -0.024234923040551228 0.0
301 2 17.311357545432138 11.969688943015113 0.0 0.02566886462534181 -0.05031406151211836 0.0
302 2 18.437269043923585 18.119982492211907 0.0 0.023679650546266355 -0.04810570812798993 0.0
303 2 4.912297787598548 12.236790836430536 0.0 -0.011597072398165504 0.01876479231894233 0.0
304 2 12.202386573342519 0.6807148693381647 0.0 -0.033995744140250486 0.029298188717329227 0.0
305 2 6.445302675624185 3.2002055813933064 0.0 0.04085757157160765 0.04398004681745011 0.0
306 2 8.825443851855615 10.523052793180446 0.0 -0.065957530973149 0.04472713879300261 0.0
307 2 3.0901998359128657 9.16553586469878 0.0 0.005544478942488273 -0.04788042476808076 0.0
308 1 4.263858006945742 17.93068154162962 0.0 0.031118579494653596 -0.061192970377365326 0.0
309 2 13.074936215617297 19.517106579788425 0.0 -0.004578920684678472 -0.037660693049107234 0.0
310 1 3.3190193748648067 1.4100724480595561 0.0 -0.06336825892028182 -0.09924385821346403 0.0
311 2 0.08249882931348314 11.496115676314105 0.0 -0.003982149854001852 0.024699974448725306 0.0
312 1 11.77519059616261 1.7044852352943858 0.0 0.13142647703579885 -0.04874407857681779 0.0
313 1 14.701960918429553 11.306145057196728 0.0 0.024125147622815726 0.1123492284051641 0.0
314 2 19.017732005816654 16.82671125112343 0.0 0.04906468423073675 -0.1305988186205307 0.0
315 2 0.4291131637286168 0.17470165407993027 0.0 0.011782085708694904 -0.03561685292994684 0.0
316 1 17.362415317109633 0.6800885566526834 0.0 -0.014377119263634422 -0.017949354339451874 0.0
317 2 13.360213140855684 18.308994392189458 0.0 -0.020218817364354488 0.06883884238350958 0.0
318 2 3.883802693648491 11.546902135966112 0.0 0.0024548080479091577 -0.0004496032286733434 0.0
319 1 4.140751265222902 3.9032061148942176 0.0 -0.06232878723731207 -0.09544575359816233 0.0
320 2 14.294936215042563 9.102175381464614 0.0 0.00015386532088058758 0.007790614092790039 0.0
321 1 4.835816310568903 3.7657051204493186 0.0 -0.10725486265246327 -0.0381449444058423 0.0
322 1 12.311349736415822 11.189583096440048 0.0 -0.08617575148551265 -0.028033700164977002 0.0