ITEM: TIMESTEP
0
ITEM: NUMBER OF ATOMS
400
ITEM: BOX BOUNDS xy xz yz pp pp pp
0.0 19.7609 0.0
0.0 19.7609 0.0
0.0 10.0 0.0
ITEM: ATOMS id type x y z vx vy vz
1 1 16.474932659714554 1.5562761327735453 0.0 -0.021634725910066394 0.06579767016036296 0.0
2 2 3.9044117118056736 1.393730172106343 0.0 -0.10997895606490565 -0.02243054716599749 0.0
3 1 10.511982948152422 17.68090460802514 0.0 -0.12447556134657707 -0.06733067078586147 0.0
4 1 15.980771125021358 4.876022951191109 0.0 0.010360891207027849 -0.005789717692632298 0.0
5 1 12.986108101563042 19.613537391378326 0.0 0.06745013144725394 0.07316942378214307 0.0
6 2 12.484825661230799 3.2812023808433874 0.0 0.0033412855809936033 0.04272066715354489 0.0
7 2 11.990623355315929 6.4436541126779465 0.0 -8.776190173929072e-5 0.013027042274080807 0.0
8 1 16.07335357924651 14.269588982900455 0.0 -0.02517701446886264 0.006302507204911301 0.0
9 2 14.697286388174831 0.03125826207729603 0.0 -0.024871420488702983 0.03625080015847731 0.0
10 1 11.751123705910917 9.338981701118735 0.0 -0.07965886642809843 0.06568083795599466 0.0
11 2 3.761268741203645 16.85347672616814 0.0 -0.01961139308350781 0.04309713396888621 0.0
12 1 8.910560518407426 8.149465370625446 0.0 -0.02879663696209912 -0.08081346481189187 0.0
13 2 6.566312340202941 1.4143155436101977 0.0 -0.0020226640346505476 0.05126811765113058 0.0
14 2 9.261249973202315 9.806659549108797 0.0 0.013316163080892644 -0.05244816350778065 0.0
15 2 12.998621511270091 2.078891758822341 0.0 0.003192495892510033 0.01989038985155397 0.0
16 1 10.430349974913957 0.29409296126257106 0.0 -0.10455879344211173 0.05640052698608333 0.0
17 1 7.711894263474516 6.113190847237039 0.0 -0.004626487009012785 -0.05947275668964811 0.0
18 2 8.14542701396299 17.379105046559076 0.0 0.05935743225708248 -0.046467965492124 0.0
19 1 0.8267879638065079 12.066433238842704 0.0 -0.00207637607708613 0.010754686389076248 0.0
20 1 10.567041923236209 17.03046268839914 0.0 0.009434903336702175 -0.020976981956991655 0.0
21 1 11.384260318534153 3.4871664438231 0.0 -0.07233173116035387 -0.07221812371964455 0.0
22 2 19.165123747810195 7.899124631855145 0.0 -0.010358659564166295 -0.009722513504509867 0.0
23 1 13.284456834053909 17.01460327493395 0.0 0.10370554108550013 -0.010960236913401028 0.0
24 1 10.444438789807647 3.584511838283034 0.0 0.05905577253285968 -0.10814453201361622 0.0
25 1 3.835422617817402 3.379186677323971 0.0 -0.020623347572757567 0.012291608823908003 0.0
26 1 9.22797409515215 0.3237811872986039 0.0 -0.006947267162977504 -0.025227692820979968 0.0
27 1 19.339329000370768 12.30854040072369 0.0 0.0549879911390526 0.10392436990966457 0.0
28 1 6.934317243371479 5.377149961272103 0.0 -0.024762072566060764 -0.06753043048161438 0.0
29 2 15.207275684763982 8.493905967122265 0.0 0.02089244112157061 -0.006954313727724852 0.0
30 1 7.015779896915546 6.042289098350317 0.0 -0.0644479217362029 -0.052326434996045376 0.0
31 1 4.873870935055547 9.741488489707894 0.0 0.031613872264875345 -0.08944426245873592 0.0
32 2 18.861936989343587 15.998278095836065 0.0 -0.029438182646271533 0.014505659348319265 0.0
33 1 13.05031036862144 9.480570904431568 0.0 0.11194344760769268 -0.0525130583279052 0.0
34 1 7.091295434334426 8.974982675837223 0.0 0.044229862758897676 -0.02826740788387737 0.0
35 1 12.830295852322836 14.870604761957008 0.0 0.10349497738501352 0.047977631341769404 0.0
36 2 13.121115075787221 8.400899107709048 0.0 0.02601692624047225 -0.04782963878801158 0.0
37 1 16.13099381288947 6.177757197776149 0.0 -0.08431693320879632 0.1403723547952534 0.0
38 2 19.698206843073187 6.745526525296094 0.0 0.03813750832752647 0.010985684998449805 0.0
39 2 17.103996478109206 6.615591132864478 0.0 0.0068067966780918235 0.10265379874983915 0.0
40 1 15.637378426133617 16.014631489213773 0.0 0.05559069404037622 -0.020393955772882243 0.0
41 2 1.2374263792811786 16.774262333978072 0.0 -0.016388854759562806 0.051427182523856266 0.0
42 1 11.034451855617164 0.6984269165384642 0.0 0.00010280419551922947 -0.17038293389102227 0.0
43 1 15.353840816896039 5.035587985463225 0.0 0.1636208886063522 0.01543771394646383 0.0
44 2 19.70014569711939 13.432017337267533 0.0 -0.036554922844794245 -0.017511027026867593 0.0
45 1 14.388974924193771 15.683807119961275 0.0 0.041620897147492904 -0.0022065123524692377 0.0
46 1 8.767357427209955 8.799594927683298 0.0 0.018203892113640877 -0.06601598368073928 0.0
47 2 13.523236196173631 0.8478932348493211 0.0 -0.01498964667334648 -0.03754459565191728 0.0
48 2 1.3206222521184219 1.3732102943909772 0.0 0.035448669837551634 0.043161077006949454 0.0
49 1 16.570328383841673 2.2200131787912962 0.0 -0.09391033810741067 -0.014469435111025806 0.0
50 2 1.6522912739617786 15.603745432694716 0.0 -0.03666571060369484 0.019486729853191824 0.0
51 1 7.25717175208651 7.318892382506338 0.0 -0.04432301356085769 0.03901089828037394 0.0
52 2 11.266390581993818 14.376011501361921 0.0 -0.005822298978029299 -0.01701865196855492 0.0
53 2 1.460288754022494 11.178301895997006 0.0 -0.03505093369291861 0.0240643735831313 0.0
54 1 13.771009145175258 10.12048493259007 0.0 -0.012166473826740909 -0.018586795218177327 0.0
55 1 5.93842627213241 5.245588664525467 0.0 0.11868323256473486 0.13144232739825068 0.0
56 1 6.5011748357338766 4.870856444861857 0.0 0.006492129213627818 0.05896813128566922 0.0
57 1 6.132388412882408 7.964930514848213 0.0 -0.1020705699020174 -0.13620588084784793 0.0
58 2 15.482127475551978 2.051971573215396 0.0 0.004245649570373364 0.015647211419258445 0.0
59 2 0.8154581288621707 14.450441078570996 0.0 0.09421316879738068 0.012205815525217299 0.0
60 1 6.459662602236587 9.152982062163257 0.0 0.011994335349512457 -0.03718748315517405 0.0
61 2 0.6960955098426914 17.936509122386337 0.0 0.009256785833407787 -0.023899939634470284 0.0
62 1 7.61708114768464 5.432971298892687 0.0 0.08475755235281125 -0.019304527038728196 0.0
63 1 7.969723954258775 4.850961766353313 0.0 0.05822128917950168 0.1158075942388033 0.0
64 2 0.12866151419605223 1.110440201366357 0.0 -0.040599810210850726 0.024744393367912166 0.0
65 1 10.838155349128728 3.0402594467313127 0.0 0.061906375729098226 0.04307314593742445 0.0
66 2 1.8652558560910406 7.768291661671215 0.0 -0.013336617136085695 -0.03966738558479451 0.0
67 1 16.052618298428815 12.913981671352799 0.0 0.03308643555009013 0.055569302324048775 0.0
68 2 9.93384813871615 16.18595234399357 0.0 -0.06909671773287458 -0.05303957200072508 0.0
69 2 11.611866508247484 17.358371535355992 0.0 0.01077454043937201 0.12472873085981334 0.0
70 1 16.709745229559445 13.143629421760153 0.0 -0.06145155890820893 0.10448276772208832 0.0
71 1 12.183392424588801 16.40068603201662 0.0 0.08805598283563658 -0.059588877661060996 0.0
72 1 15.811292026667394 5.54420191707568 0.0 -0.001936300006659191 -0.14970677316710893 0.0
73 1 14.081801590825215 11.910582707601803 0.0 -0.09199089497789152 -0.12358161973894684 0.0
74 1 18.102304046316167 7.964269193555461 0.0 -0.09427622835498764 -0.07986315758132533 0.0
75 2 5.962508974429544 0.3095982407912454 0.0 -0.008651655123891563 -0.03949093593008746 0.0
76 1 14.004548820651449 18.95540354527844 0.0 -0.07019068446926834 0.049858852998062 0.0
77 1 12.645047285647756 16.858118593663978 0.0 -0.14938881439679108 0.0872433774645767 0.0
78 2 5.466661022402122 14.049316790478676 0.0 0.01821460924776826 -0.026829185779700684 0.0
79 1 17.12969402080872 4.295165064870115 0.0 -0.061192860418189256 -0.027471281163245067 0.0
80 2 13.233240546314194 11.193348527780822 0.0 -0.019476652526079326 0.031019722805760465 0.0
81 1 18.789262115815212 18.29686525319184 0.0 0.14449333762194197 0.18697243610797845 0.0
82 2 10.078147340020536 11.008949602863368 0.0 -0.023087570223867055 -0.03351664255520104 0.0
83 1 11.531868717846223 19.26002360651515 0.0 0.09452648915621649 -0.14581063994543716 0.0
84 2 17.171470381860413 14.12322116722222 0.0 0.09806014620607523 0.04222262456077296 0.0
85 1 13.712388726998597 5.877567677059573 0.0 0.11345778280142324 0.03334183021328684 0.0
86 1 7.6199023138662945 9.427052023412836 0.0 0.09258103086891455 -0.02683109043849896 0.0
87 1 11.500768321954391 18.4821555490286 0.0 -0.027616853824077307 -0.008942774880771363 0.0
88 2 12.001746527459805 1.2416632941831065 0.0 0.045214177683475305 -0.024240087580222232 0.0
89 1 11.57451184494288 16.11603658760884 0.0 -0.14469798978984177 0.12890400691366394 0.0
90 2 2.6094792947111003 18.99981880707781 0.0 0.006916009578863553 -0.010434464042489417 0.0
91 2 14.515400387845451 4.385576450513342 0.0 -0.01403761937458078 0.09209011191633192 0.0
92 1 2.6618326034673805 13.162108985178222 0.0 -0.02012298091976061 -0.0015715228747737286 0.0
93 1 19.38102194429784 17.993807062800887 0.0 0.07558598582246433 0.05736591801036251 0.0
94 1 12.423857580787683 9.273190255976644 0.0 -0.015099781217025559 0.0455627343625494 0.0
95 2 18.387753612097498 6.873013436165278 0.0 0.006989460358761444 0.07995079574320553 0.0
96 2 17.278156321322875 8.664172669031984 0.0 0.03480736527591671 -0.03235144158317872 0.0
97 1 11.67310224099857 0.18277542283900727 0.0 0.12984406139723723 0.07154664488209986 0.0
98 2 7.300945744861561 10.63225609821377 0.0 -0.02146806675800142 0.02436037858140679 0.0
99 1 18.166229010521707 3.433673150805576 0.0 -0.02382712459100036 0.034428863265655155 0.0
100 1 10.976946838134372 16.454904107814475 0.0 0.06127141160051975 -0.010780425360005251 0.0
101 1 9.88351476450302 2.136931706274545 0.0 -0.13393330657081448 -0.05936538034025943 0.0
102 1 11.553928753120015 15.418654948056968 0.0 0.14797679563143162 0.03959687114269739 0.0
103 1 8.29456883404746 11.11205480321968 0.0 0.05344608693404683 -0.17060812824918112 0.0
104 2 5.300325226757109 1.515288671427802 0.0 0.07686889585529531 -0.11055278257670811 0.0
105 1 13.331645779078888 18.877437826985194 0.0 0.058938284974506434 -0.0439195916215868 0.0
106 1 18.635704516823427 9.239055736246481 0.0 0.008487740704270356 -0.0450250901154716 0.0
107 1 10.214026185277625 2.7280141240659734 0.0 0.05981591303440919 -0.0184544637652614 0.0
108 2 2.2290400115925846 14.519939656143185 0.0 0.07932223394031639 0.004782670986095789 0.0
109 1 8.604382239200982 4.658928380473303 0.0 0.0146592889098255 0.03982626680959122 0.0
110 2 3.834332910802164 10.175463412742072 0.0 0.06432016534683958 0.034369457370456276 0.0
111 1 12.167596981807403 15.05609588118199 0.0 -0.06084335446957253 -0.04894527172404793 0.0
112 1 10.457331513756708 19.39640498245551 0.0 0.020859216546442103 0.09476643584731581 0.0
113 1 14.380622223054836 5.4935831704474305 0.0 -0.0502277205254374 0.0715185926395276 0.0
114 1 6.937795527270976 9.623882889936148 0.0 0.006643504927090458 -0.050654939202816884 0.0
115 1 10.405617016798526 0.966266046649534 0.0 0.04441958491338502 -0.0106570509198614 0.0
116 2 2.5898874898532966 1.3911230694010186 0.0 -0.038511283517291335 0.08385787864535127 0.0
117 2 1.6116538955959148 13.43824375285211 0.0 0.02353804882981265 0.011989276311990106 0.0
118 1 12.065723640617824 12.431403409876891 0.0 -0.08667739674454057 0.021603408092595866 0.0
119 1 18.74031528496077 18.959970694958855 0.0 0.042607868249236944 -0.03935110855270658 0.0
120 2 16.520657282002155 15.31276276377334 0.0 -0.015680329016398625 -0.012271727649203186 0.0
121 2 2.5033486358740014 16.60422975258476 0.0 -0.03686559073681544 -0.028535255885519705 0.0
122 1 3.749865504599376 9.031191614497972 0.0 0.02947483893251429 -0.04948758247626358 0.0
123 2 2.672616638381414 10.780114087523593 0.0 -0.062218570551217864 0.03622687962063867 0.0
124 2 2.5676306138175744 4.509354060099022 0.0 0.08986415663991426 -0.025823950461584817 0.0
125 2 2.518686981528042 12.069053087220123 0.0 0.00229111382505969 -0.04309851644015205 0.0
126 2 1.9692189790076948 17.832838664217253 0.0 0.057184745976118716 -0.04656273398703225 0.0
127 2 17.93878816023412 10.566215531066137 0.0 -0.045363127737451395 -0.006247078369620277 0.0
128 2 19.54597374045725 4.459873923937728 0.0 0.06486942790332 -0.05965122700512647 0.0
129 2 11.179293505872778 13.072623433137213 0.0 -0.07378768359903659 -0.024050672181224083 0.0
130 1 4.398957241856906 13.648940773241717 0.0 -0.02881244853696315 0.009671432936316539 0.0
131 1 12.684968621199666 19.038441859149263 0.0 -0.021640747186793253 0.044255010498271186 0.0
132 1 3.3569248825489177 15.13952941647385 0.0 0.021184385568774295 -0.12232247441549947 0.0
133 2 3.1532514244454406 2.4917699698599862 0.0 -0.018855708325474223 0.023078594856909513 0.0
134 2 5.572644695067027 4.210426756738326 0.0 -0.023484862155596954 0.07633232193884297 0.0
135 2 16.89683195993489 9.842369142428181 0.0 -0.047357951207007594 -0.05337043729477279 0.0
136 1 18.45613340156673 4.6959449623647105 0.0 0.07170659720148455 0.0354767863894291 0.0
137 2 3.724220941503547 11.496566385530059 0.0 -0.001897818957898274 -0.04104357644048193 0.0
138 1 5.715824347183834 5.893063034503958 0.0 0.019777797224247006 -0.09334024367451269 0.0
139 1 13.726062346328746 9.401988787781224 0.0 0.05538587388456617 0.017304799575839424 0.0
140 2 3.942318276874372 19.013485954464766 0.0 -0.015082941135252256 -0.09641626016368399 0.0
141 2 13.26946724938208 15.899539156766108 0.0 -0.008695121690022713 0.06812009804618274 0.0
142 2 10.456128131273687 4.971276576053599 0.0 -0.05503809695209331 0.015495426612935969 0.0
143 1 0.8103134905195142 12.736032241590003 0.0 0.06509515173111606 -0.050137581992903295 0.0
144 1 11.016981672152614 5.927524332639434 0.0 -0.05030877782005931 0.033898976622454294 0.0
145 1 13.919500083904921 16.809080703423035 0.0 -0.002317113089034903 0.10198954564174434 0.0
146 2 19.725512658608945 9.05411723468743 0.0 0.09106167936575606 -0.006980934902573349 0.0
147 2 19.00667974634795 5.652653148946758 0.0 0.026557940687074302 0.021491606909886024 0.0
148 2 3.7486533008401013 7.1030552685251624 0.0 -0.01856818625363023 0.09144293424044872 0.0
149 2 3.2814427216274855 0.3093172883194313 0.0 -0.03467165083129559 0.028023914280052496 0.0
150 2 17.946592935184093 1.1716864246956524 0.0 0.01198010494254906 -0.06400226157954797 0.0
151 2 3.855824508031092 4.4532662502423594 0.0 -0.06499689450832782 -0.025684364625908295 0.0
152 1 14.132201860463882 8.847629741992106 0.0 -0.1221900153170623 0.0011576450523096667 0.0
153 2 13.931673114714627 14.728745901113202 0.0 -0.02870736035167735 0.02201133415147787 0.0
154 2 16.363841615676897 7.69796149068745 0.0 0.006281303884974501 0.007509158642256696 0.0
155 1 12.307380370548794 11.80973820242504 0.0 -0.1613727731754472 0.09707781885748244 0.0
156 1 5.4645349194219195 2.6002579145634295 0.0 -0.03531981209300088 0.1260834907910659 0.0
157 2 17.963859466314723 15.095338978305216 0.0 0.01685894379523226 0.005537673734469892 0.0
158 2 11.931631252765968 4.442284213912073 0.0 0.08158726549403263 -0.04226233472565931 0.0
159 1 10.955022952012348 3.9940080909834483 0.0 -0.036307446465367516 0.22280461684018518 0.0
160 1 12.502086557296893 9.920682541834344 0.0 0.10292136129643621 -0.026961657043121107 0.0
161 2 15.125753573725113 13.64628216442657 0.0 0.05579422702213774 0.05315934553205986 0.0
162 1 16.63296206996791 12.485360487461746 0.0 -0.08584181677190246 0.02252972403796106 0.0
163 2 10.18139162094453 14.998932582992826 0.0 0.04845406458267846 0.026090430823654333 0.0
164 1 18.014751860976734 9.473828953580117 0.0 -0.029528229736845175 0.03178927392217205 0.0
165 2 14.193609638964881 7.7579523268390105 0.0 0.05516983290542035 0.05027490883849047 0.0
166 1 1.4384961090431745 12.3468902272694 0.0 0.07131507666617917 0.05097998941279949 0.0
167 2 17.72311689890321 12.67605290314393 0.0 0.029438734745692953 -0.045469268854340585 0.0
168 1 3.350449061477533 8.474175829238707 0.0 -0.03565979760280247 -0.029784945804962538 0.0
169 1 2.669742471751301 8.47973471652029 0.0 -0.06084104418239319 0.03558316921825843 0.0
170 1 14.62502113108516 1.127393096359084 0.0 -0.07246160255699138 0.027702689513651395 0.0
171 1 12.52844535063861 0.31399895301663455 0.0 0.19203985583104197 0.015349384448671155 0.0
172 1 18.47198480050936 4.02891359091042 0.0 0.07379864991960902 -0.04703888843147772 0.0
173 2 13.20495641920698 6.873233189021382 0.0 0.07618225448919909 0.041025962113318305 0.0
174 1 18.73932117345349 11.331140999418167 0.0 0.04055483187175927 0.030170726318055913 0.0
175 2 4.470851250885378 15.885538170646761 0.0 -0.026480365098558768 -0.03356769168751884 0.0
176 2 9.859900852713091 8.715052097250876 0.0 0.08445240244270087 -0.10547154795462875 0.0
177 1 9.88795084259463 17.33534420823843 0.0 -0.010942831386216363 0.015091904887453359 0.0
178 1 7.841399061919614 11.592010400690762 0.0 0.0320128058042494 -0.06248329809213103 0.0
179 2 10.120629161351294 13.736326720813304 0.0 0.03812587188463982 0.059959911691195474 0.0
180 2 19.270233997559668 3.2056455041519842 0.0 -0.050295195636256236 -0.05233414435848407 0.0
181 1 12.051182007434264 18.846849808835017 0.0 -0.03006015013639492 0.026587491232029185 0.0
182 2 10.73746505709881 9.810079662577513 0.0 0.04613378204926467 0.08099861861341692 0.0
183 1 1.206864793119815 3.39367163260845 0.0 -0.002881681255308432 -0.09996163098180881 0.0
184 1 10.978698270264807 15.763555729374398 0.0 -0.01528243680879004 -0.12240425801407948 0.0
185 1 6.385497286464121 5.757078589279029 0.0 -0.08095422280849489 0.10670210366985432 0.0
186 1 6.795330653723372 7.823214483778471 0.0 -0.06806798103130542 -0.00230945038731082 0.0
187 1 12.072950944585545 8.72915144357424 0.0 0.11311597650708655 -0.0721639177665045 0.0
188 1 11.480107625798125 2.8284488289351484 0.0 0.10617671735211603 -0.017505557059882493 0.0
189 2 15.175366092903753 3.28191220347881 0.0 0.028650735683248343 0.027569443946674266 0.0
190 1 4.418301920864082 9.24608990927522 0.0 -0.022025074395607913 0.11689089282688915 0.0
191 2 7.83518424240618 13.889829080276991 0.0 0.0031924812451758593 -0.09562955838550434 0.0
192 2 18.415377911214758 13.782530878267028 0.0 0.04656062416797527 -0.03174980065562298 0.0
193 1 16.45113160286457 4.410180505064166 0.0 0.10566666519105715 -0.15574289150624046 0.0
194 1 0.23328756909977583 12.380553214282685 0.0 0.0507668749784394 -0.024009048961140006 0.0
195 2 8.079227120747847 19.72119742520581 0.0 0.026197683210492595 -0.03209418433014045 0.0
196 1 8.745591450476802 0.7914771137439114 0.0 0.03493248770641788 0.07035459809916009 0.0
197 1 17.58693890460622 3.7927428092090096 0.0 0.0510056968405208 -0.03031591417194728 0.0
198 2 3.242234460359262 17.952535639098553 0.0 0.07934169402446101 -0.02764079235557499 0.0
199 2 9.933875054282023 6.120603327991924 0.0 -0.02599973940456871 -0.017267216148162255 0.0
200 1 9.314283814998497 1.8026782290469967 0.0 -0.0617549388210287 0.030346973488997564 0.0
201 2 1.8649894414110977 2.510102598291252 0.0 0.08004052425551493 -0.02413697640288722 0.0
202 2 1.9164144094253335 5.6078486049948415 0.0 -0.04548015704161377 0.03781588424579785 0.0
203 2 13.174874942365403 12.485634815591151 0.0 0.06504531484347165 0.03202983884302177 0.0
204 1 0.8412120892597936 0.258882852439924 0.0 -0.15308098688174274 -0.12963170223062404 0.0
205 2 15.059809145400768 17.167904150577822 0.0 0.0404018860309412 -0.042788824175139455 0.0
206 1 8.413303763289724 10.47055388681406 0.0 -0.10996810087324194 -0.00984277839953847 0.0
207 1 6.607168995654468 8.47538180827443 0.0 -0.018222715102298805 0.2439113353540142 0.0
208 2 0.6415051446265037 7.91369123315982 0.0 0.07067278145932115 -0.016184929038518543 0.0
209 1 7.51912843458064 0.903431210981788 0.0 0.019749978146405025 -0.02758730735714175 0.0
210 1 16.203214790891966 13.592453337068775 0.0 0.022609368535960767 -0.08939294442693453 0.0
211 1 12.998583465627764 14.186388513801525 0.0 -0.03939678109337815 -0.09284958309808501 0.0
212 1 12.78587482999281 13.535424618327923 0.0 -0.07663119452967034 0.014141981595756106 0.0
213 2 8.966878613173234 14.550865597505007 0.0 -0.016185218546152465 0.14000110351896497 0.0
214 1 7.452312844532019 18.23462158554122 0.0 0.06179774136942799 0.10751148897662215 0.0
215 1 11.941629106643147 2.325443161176665 0.0 -0.07133782097244462 0.013876164388820078 0.0
216 1 9.814328029685157 19.690199242912605 0.0 0.07084823971608652 0.12031351959092378 0.0
217 1 9.23895784512236 17.61147825007379 0.0 0.17562186971350843 -0.0220026677641813 0.0
218 1 14.971888037724007 16.05374521510152 0.0 -0.23699644045293441 0.04034231498783234 0.0
219 1 9.171788748820623 19.41994845148573 0.0 -0.111784922999834 -0.1284131511565257 0.0
220 1 17.086066916763517 1.7961402841461578 0.0 -0.04961676483423908 -0.0550611795899094 0.0
221 2 12.106973683763632 7.657217211081277 0.0 -0.024855905399270555 -0.0007253099785854937 0.0
222 2 16.53847928410578 3.329337377211616 0.0 0.020180638201200172 -0.07917975609684713 0.0
223 1 9.915426842962084 1.4332333881182053 0.0 -0.05501292929844095 -0.008068675923810085 0.0
224 1 1.8621252753772422 3.623518972483775 0.0 0.060490081855248165 0.05184802736115795 0.0
225 1 9.899728567526328 4.0055530672012525 0.0 -0.021695871336205246 0.07606646616990119 0.0
226 1 9.827947560926372 0.6251653548308029 0.0 -0.037670248319697404 0.09213872484536256 0.0
227 1 17.78008165845792 4.52988522621914 0.0 -0.02181772062245304 -0.12599875905293415 0.0
228 1 18.363598171990603 8.62304659956736 0.0 -0.04444026058659057 0.01825621675399025 0.0
229 2 14.55683723403214 10.911482116464141 0.0 -0.05756402186389562 0.046391570443027746 0.0
230 1 9.333607111681408 1.1043281196325614 0.0 -0.002860721054821211 -0.08070139644446353 0.0
231 1 10.93655034571984 18.90066926015025 0.0 -0.08003628574470333 -0.03070012395196457 0.0
232 2 16.867667177482517 0.5404463949346993 0.0 -0.03241232670144754 -0.08113488796429266 0.0
233 2 12.685254569409711 17.960746347848183 0.0 -0.08965824748432655 0.06535893725359893 0.0
234 1 7.0703734974379175 0.37897475307325174 0.0 -0.02791817179554943 0.12036245096655274 0.0
235 1 11.831795072489493 10.038840516947571 0.0 0.04668289190413604 -0.11705778975605291 0.0
236 1 11.591450865791943 10.693617134512694 0.0 -0.08669320324277123 -0.004531681213708167 0.0
237 2 7.805390229314388 12.675736991940393 0.0 -0.003645348376506596 0.005373184113261475 0.0
238 2 10.899014519363341 7.065870564577463 0.0 -0.050686081910541414 -0.044302366142604584 0.0
239 1 15.774783786210763 4.213562994139805 0.0 -0.08358299223630472 -0.06433316414960957 0.0
240 1 4.382446974751149 14.309376482572976 0.0 -0.026602101743781203 -0.004294823267437361 0.0
241 1 13.770142180384557 5.215993429623916 0.0 0.041929833334934774 0.03586043485824369 0.0
242 2 5.8130201059173086 17.976119850737188 0.0 -0.01384039176733459 -0.05111463662089271 0.0
243 1 6.796007919141311 12.284658680469052 0.0 -0.05110444650703264 -0.060055882552187724 0.0
244 2 7.743885700563191 15.085963088232573 0.0 0.07750187190739756 0.0889991496227245 0.0
245 2 16.17546616982463 18.08958602806265 0.0 -0.15714326481271965 -0.034547233567502084 0.0
246 2 8.385350607693107 2.458699946679254 0.0 0.05111851305727931 -0.08788533766293483 0.0
247 1 6.442220512628588 16.226155679665865 0.0 -0.16962509551940347 -0.0815151269084226 0.0
248 2 15.797468018347402 11.791545236130943 0.0 0.028164951443410472 0.008097144906350062 0.0
249 2 16.932092340435602 5.385719101295494 0.0 0.03564547925533143 -0.009032312827542691 0.0
250 2 17.109346468138053 18.985752178191643 0.0 -0.020144638712678062 -0.1009849425942955 0.0
251 1 7.291789508039903 4.811475990339616 0.0 -0.028604254068150318 -0.01643586676527036 0.0
252 2 17.564205613311103 16.32951451878013 0.0 -0.040599473380081574 0.041216682450858515 0.0
253 1 17.528114669660624 7.604511399261478 0.0 0.11006047357871422 0.017518429100315824 0.0
254 1 8.11690792085372 9.89486769811224 0.0 -0.04411027473804626 -0.03346337957679965 0.0
255 1 15.685225317312206 6.793227975845786 0.0 0.0993123232523746 0.04813345959082057 0.0
256 2 19.737104091779308 16.931533156106873 0.0 -0.0395918385693144 -0.014629038177399557 0.0
257 1 18.718152459555085 12.046698657518078 0.0 -0.02954694043197858 -0.003336471467212631 0.0
258 2 12.684206735464658 5.4685184601815795 0.0 -0.01978062763391117 0.047439906395069745 0.0
259 2 17.38221509054863 17.731992226212366 0.0 0.02228742497529283 -0.02066559589609606 0.0
260 2 19.273800811661406 14.747104957595383 0.0 -0.0023092598695469424 -0.09972375438044997 0.0
261 2 3.722331275806287 12.775097350507972 0.0 -0.06029430484604483 0.018211073072801138 0.0
262 1 15.861611754585947 9.406679662070532 0.0 0.042367042712287244 0.06515504156171584 0.0
263 2 7.830432595632597 8.234203338353153 0.0 0.05478858918063966 0.0038211591835117568 0.0
264 2 18.519751880134702 17.245314613315255 0.0 0.043340612615757744 0.05067107531016508 0.0
265 1 0.5489306003723161 3.5880107275621347 0.0 -0.05067345843514603 0.004969837483549928 0.0
266 2 4.6420953123206345 0.3945327580418934 0.0 0.013892117186946674 -0.04684965684215089 0.0
267 2 8.92525567655114 11.98933772810798 0.0 -0.026952073907134215 0.01321352597485263 0.0
268 1 2.9884305159217313 7.8818179545979765 0.0 -0.14161401336893273 -0.05185455679943416 0.0
269 2 4.421960763458048 8.132933761636117 0.0 -0.06948928672897992 -0.05029235657801177 0.0
270 2 5.223993945133636 19.043402636734605 0.0 -0.02137488008683835 -0.0037961554877357865 0.0
271 2 9.650906332295833 7.3728993018498485 0.0 0.012066795985559887 0.04050785902313133 0.0
272 1 7.668319125705469 1.5878744026795788 0.0 -0.022478790547605758 0.026421207634694098 0.0
273 2 15.224929986076322 14.965669600211326 0.0 0.13950557070866354 0.01420540490874774 0.0
274 2 14.522816594233971 6.586988943286833 0.0 0.024011961234419028 -0.035252698611638204 0.0
275 1 3.185632746015071 3.5793654005333027 0.0 0.05307970226735489 0.040415917511741346 0.0
276 1 9.499379390308496 2.6889129088688972 0.0 -0.05553554005621944 -0.05208275745209905 0.0
277 1 10.88692189835486 18.226629622139892 0.0 -0.0340823397239896 0.017220583433502152 0.0
278 2 6.783340229691983 3.8286101568429807 0.0 -0.030168411948282983 0.013875152925700239 0.0
279 1 3.0311871557565713 5.5044174360416465 0.0 -0.04492018627678725 -0.056463190138291014 0.0
280 2 10.934810729544994 1.8952348286173502 0.0 -0.0622577747585408 0.05305717754539281 0.0
281 2 0.38462303785047486 15.727802463804593 0.0 0.031201516609777994 -0.07675348698024853 0.0
282 1 16.22163228351746 8.860358287617707 0.0 -0.07314536573905304 0.025094555289869258 0.0
283 2 2.548197601949183 6.7305599968705945 0.0 0.02257193673557547 -0.0023292131744173227 0.0
284 2 5.660464058266366 15.398184695389373 0.0 0.017561233715200117 0.009369372171915242 0.0
285 2 3.3507098128277253 14.022621770912005 0.0 0.03360376087210245 0.0532833252245321 0.0
286 2 10.096212444009542 12.408272213576597 0.0 0.048276551829460945 -0.01813675877558296 0.0
287 1 18.160757432957144 19.244392279038777 0.0 0.0019483514785848506 0.06491416862654742 0.0
288 1 7.1836030502759005 11.739355977715295 0.0 -0.05584802668512104 -0.06910174538110532 0.0
289 1 14.733698411906532 11.979519520343239 0.0 -0.04721204884391233 0.1056480901830198 0.0
290 1 4.5977804599785035 3.6007674018390645 0.0 -0.01402096764720834 0.07659090377832556 0.0
291 1 8.150487890587653 1.1120740688077222 0.0 0.08199946151673179 -0.05564821015719013 0.0
292 2 8.726013670024692 15.888231989759264 0.0 0.04799100133693635 0.09476322158610025 0.0
293 1 4.733035035499228 14.85429290818509 0.0 -0.045722627675772454 0.04821601405511004 0.0
294 1 18.596005399268822 2.1617252777950307 0.0 0.04494702826833831 0.07760024671363573 0.0
295 1 12.303929871203918 10.545837971290313 0.0 0.01879605276573145 -0.02042942961087504 0.0
296 1 7.313183003436646 6.645537886000818 0.0 0.15178053812356135 0.10994337247679575 0.0
297 1 5.495023118677026 7.706249735116394 0.0 -0.18494223367463986 0.02309632144914589 0.0
298 1 12.118930149222107 11.172538478046274 0.0 -0.11101268186145356 0.10743135257520277 0.0
299 2 4.88535798877585 10.846919611049966 0.0 0.04329046664283291 -0.028669932284867927 0.0
300 2 5.428647098777912 16.733438264660986 0.0 0.09649454871713377 0.038105759959832515 0.0
301 2 7.553061635582315 16.300585776955675 0.0 -0.008580079835544535 -0.024767196582528888 0.0
302 2 16.355871024767932 16.83237453665167 0.0 0.053091967888514266 -0.010264945157731197 0.0
303 2 4.8663410493792245 12.067861875620293 0.0 -0.04926122566097299 0.03379954612707439 0.0
304 2 6.833313933286942 17.300102886604034 0.0 0.04132503502700879 -0.0057882084786508615 0.0
305 2 13.876182183708954 13.500855090180833 0.0 -0.01983248993167796 0.016319994717100494 0.0
306 2 1.5674277203199782 9.001031448162667 0.0 0.06209701094720783 -0.046571664836590344 0.0
307 2 13.18501021219401 4.313510125630261 0.0 0.013475919885414092 0.10217924363542154 0.0
308 1 4.018978295918758 14.888046059088312 0.0 -0.03702455890835823 0.10149370438086532 0.0
309 2 0.548829645095237 5.591528202909859 0.0 0.003206669312876177 -0.019890399209851656 0.0
310 1 14.362691597527279 16.33160788308584 0.0 -0.02209152765015245 -0.14461683000191725 0.0
311 2 8.719127699080145 5.726132131543344 0.0 -0.06870737591062166 0.09079166654906375 0.0
312 1 2.5288329272347845 3.412502494430583 0.0 0.007597289270022665 0.038586300906503015 0.0
313 1 15.2969729713594 7.376690795793608 0.0 -0.009999159972709436 -0.19954738437045064 0.0
314 2 1.2012001299080093 4.505939558315339 0.0 0.03002633165427864 -0.10823775084441684 0.0
315 2 0.6866088336439695 10.12376725751891 0.0 0.014214507294762981 0.01930637540589578 0.0
316 1 1.794279043065688 10.095011259362433 0.0 0.014200754118998245 -0.05228880996755687 0.0
317 2 2.7616650207737927 9.536888443213146 0.0 -0.03443190731918494 -0.015387110025330365 0.0
318 2 4.828865803576025 5.2327287454814115 0.0 0.03473195494830523 0.00964540030489654 0.0
319 1 12.197143196430023 19.498257318368434 0.0 -0.03379812110733749 -0.06166257591123151 0.0
320 2 7.127942521275428 2.5661853541843476 0.0 -0.014588216960562856 0.011582302527848982 0.0
321 1 13.637157466073157 19.50567946810669 0.0 -0.01958698995378864 0.01972709885764482 0.0
322 1 18.15219900749039 11.660006159936001 0.0 0.010285402296049184 0.009008021986239848 0.0
323 1 18.929951705208058 1.5521749350343896 0.0 -0.03881995856063246 -0.003092247964474483 0.0