ITEM: TIMESTEP
0
ITEM: NUMBER OF ATOMS
400
ITEM: BOX BOUNDS xy xz yz pp pp pp
0.0 19.7609 0.0
0.0 19.7609 0.0
0.0 10.0 0.0
ITEM: ATOMS id type x y z vx vy vz
1 1 4.654695499683676 8.08000380179811 0.0 0.07365496363134288 -0.04669370049728692 0.0
2 2 4.071750905003238 1.5490698050703524 0.0 0.037649641082398 -0.08504180807241002 0.0
3 1 5.278323541042674 5.617940585376331 0.0 -0.08522372686235061 -0.013096925868314 0.0
4 1 8.224229133032136 16.229010399869857 0.0 0.046906659662927716 -0.1420196146624697 0.0
5 1 10.621460745282796 10.746066568931193 0.0 -0.045946406744403125 0.09481938480048979 0.0
6 2 9.098373617601595 8.98803690614875 0.0 -0.025403104651198903 -0.05194167480521893 0.0
7 2 16.402833073850946 12.467964861554792 0.0 -0.011169924993666522 0.045313407695604886 0.0
8 1 16.20232298276189 16.947488982607346 0.0 0.12022157178667885 -0.04859400282153164 0.0
9 2 13.443445833380801 11.27801898952737 0.0 -0.017846920109314556 0.014638039179141213 0.0
10 1 0.02714579237855902 7.494547981854051 0.0 0.0953077690270526 -0.05135136190820651 0.0
11 2 8.486687145974447 1.2150068536484484 0.0 -0.026724941472107345 0.05448645331356564 0.0
12 1 19.314202175119366 5.762325332472666 0.0 0.01679757674046125 -0.05970068535095041 0.0
13 2 11.036704382580359 9.749577264159331 0.0 0.0003984850723313681 -0.029112294334489953 0.0
14 2 7.184763402799131 6.241287994472725 0.0 -0.006415467477894858 -0.01805524434104794 0.0
15 2 16.189987245443252 18.950958296294147 0.0 0.09283805348209344 -0.03588076589904875 0.0
16 1 10.299956603591637 17.818466406971606 0.0 -0.052806603693587056 -0.05311830675072891 0.0
17 1 2.65938902814907 5.891315214078888 0.0 0.03140043399614708 -0.0835904954914227 0.0
18 2 15.116505251532484 12.541603318764198 0.0 0.004534441683463615 0.02620127900850237 0.0
19 1 10.817346063226381 17.374730201474247 0.0 -0.08328238019516934 0.15921888194926279 0.0
20 1 0.14611928947079963 5.3651427450294085 0.0 -0.08417963575602462 -0.08063584282198723 0.0
21 1 12.903071388774576 18.447251006918385 0.0 -0.08973834941421825 0.11125454447064899 0.0
22 2 12.196547295066681 11.506304203871961 0.0 -0.01236015107781152 0.01857069798082867 0.0
23 1 16.87362902116191 6.923901209833067 0.0 0.03082175743005188 -0.14919286752509933 0.0
24 1 0.24054069903426797 8.139253606716471 0.0 0.2254699846502103 -0.03548460111911699 0.0
25 1 9.39101406212767 10.059422325714115 0.0 0.015489861734211803 0.029154468248746703 0.0
26 1 0.05779583657407208 4.681458238244461 0.0 0.05762515695890878 -0.02630186558631018 0.0
27 1 1.0537965889601235 1.471474069306075 0.0 0.09655652187374808 -0.06544270942625985 0.0
28 1 19.518793345276492 10.804470054456964 0.0 -0.021119873920515772 0.08910467595140559 0.0
29 2 18.26203359227511 15.70089878344146 0.0 -0.0016905657627363355 0.017247113339104565 0.0
30 1 1.1363175799347356 10.62315494372768 0.0 -0.1443705301551018 -0.014885713419900274 0.0
31 1 6.022307804410517 4.249489997504892 0.0 0.023217730696896446 0.13704275996604146 0.0
32 2 3.452845691291686 15.230547563973676 0.0 -0.018225575493517197 0.0205571778740419 0.0
33 1 0.7117804832395209 4.8025741447848445 0.0 0.13251496682321084 0.0671824087233955 0.0
34 1 16.71581940727355 11.422804370491606 0.0 -0.061056660704594846 0.014535098365557527 0.0
35 1 5.970738556098462 12.409431297667618 0.0 0.061745700326160016 -0.0004903429983563095 0.0
36 2 0.38024903631679763 6.470029234653541 0.0 0.06861841565425443 -0.09765725524599524 0.0
37 1 2.200186937608511 3.7218453718282922 0.0 0.08213257289527312 -0.07893750619894171 0.0
38 2 14.763735982276163 3.048217632737428 0.0 0.047316538676551854 0.054275686720886375 0.0
39 2 2.9300016584247714 13.979509013085599 0.0 0.07154232643310288 -0.007000938674976371 0.0
40 1 4.588374773832962 13.93579665456331 0.0 -0.07563031535486701 0.026837271491128058 0.0
41 2 12.040402643335895 5.240235694826008 0.0 -0.02086920251491879 0.04677538711206164 0.0
42 1 15.561124248861635 16.757577829659827 0.0 0.04338933778700342 -0.09976030916253703 0.0
43 1 0.8343152305174623 11.189672884121483 0.0 0.11802201584360242 -0.12155598051393302 0.0
44 2 2.7073436093790346 2.738633364880874 0.0 -0.12281208729818786 -0.06244029980200469 0.0
45 1 15.299770221225492 15.48649544374474 0.0 -0.10021273734561595 -0.055655837363599296 0.0
46 1 8.903737857415953 19.302265524454736 0.0 -0.05478273591611484 0.005399982819246186 0.0
47 2 3.665881133160836 7.637481778475207 0.0 0.04458715363210273 -0.017992016537127318 0.0
48 2 5.973457891213591 16.84121311032219 0.0 -0.029288586820611275 -0.022784909535051297 0.0
49 1 1.6238205457233656 1.8635324087848242 0.0 0.10709194710544791 -0.019831563245824885 0.0
50 2 6.342785122276494 5.28565114389839 0.0 -0.020218263052801836 0.020989063996368316 0.0
51 1 11.693267875747196 1.546116515406152 0.0 0.07716162888493096 0.040339103883690906 0.0
52 2 3.6460746637951353 6.373126716522367 0.0 -0.09604214849257955 -0.06369865597892947 0.0
53 2 9.33643871162706 6.832329301977773 0.0 0.012089726030141246 0.010131696038972616 0.0
54 1 6.47764585936663 10.370337297181443 0.0 0.08721094093736308 0.008541463127416528 0.0
55 1 1.6092779514029814 4.0095078197985625 0.0 0.02349329797930752 -0.12244585609741487 0.0
56 1 0.8139226031764687 8.488263107167755 0.0 -0.10876729477953223 -0.003863003085325854 0.0
57 1 19.290651156749036 5.11046257150466 0.0 -0.04417144075977574 -0.07987967561888729 0.0
58 2 11.018073315112183 15.093123958684718 0.0 -0.004261203209627401 0.00019728461967305778 0.0
59 2 13.114993311744499 16.821881610311934 0.0 0.03021551464587337 0.11106247589832023 0.0
60 1 14.354469383772248 6.95658580484746 0.0 -0.18179060402116368 0.05255047582450241 0.0
61 2 9.71068865548327 15.301676832835277 0.0 -0.001543787987280776 0.01706399751620337 0.0
62 1 0.17908525655515078 11.323377317430126 0.0 0.08083417293909372 0.014741410748361 0.0
63 1 8.812566612457777 16.674437242922693 0.0 0.060497763676575805 -0.04748590691489592 0.0
64 2 17.3093574745328 9.479801666243427 0.0 -0.009124014178226983 0.019686447619393387 0.0
65 1 16.27783292302583 7.219251430755538 0.0 0.03620769501559067 0.0044835304221839505 0.0
66 2 16.477667025957334 5.899366998350301 0.0 0.02695039558943055 0.07323799554014787 0.0
67 1 18.294773406616816 1.8103023455231007 0.0 0.06981324908732896 0.031149022700354693 0.0
68 2 13.925330470555926 2.0367485708857838 0.0 0.05177703995650412 -0.0611421043335833 0.0
69 2 13.521323743205604 3.2222128634190716 0.0 -0.03132355712334798 0.058382392752678224 0.0
70 1 1.8022558858137439 14.09604397835497 0.0 -0.02036217299238363 0.005374513594368265 0.0
71 1 5.170304889927067 3.2469551890933728 0.0 0.12132418268377615 0.13224242773851466 0.0
72 1 10.052892726626457 11.087548011204662 0.0 0.05984559739446546 0.06955105680773378 0.0
73 1 13.718557617773868 6.707791455181421 0.0 0.09439098868306334 -0.12244682006720145 0.0
74 1 19.29108542004417 13.418114450276649 0.0 -0.018419567295696118 0.09472103446127327 0.0
75 2 7.888836170207547 8.516768847950974 0.0 0.023155608555341642 0.05480135414466451 0.0
76 1 14.631471475585181 4.120692020837439 0.0 0.09235554156326364 -0.08210501886125426 0.0
77 1 19.732261147533304 10.166606825008035 0.0 0.06077457178950853 0.06216878466592845 0.0
78 2 2.641350507489982 17.19356189518569 0.0 -0.10624985807812853 0.02239476724968262 0.0
79 1 18.53133796277028 4.216214543735606 0.0 0.020081292263200358 -0.06485211694074869 0.0
80 2 14.655711571276106 19.06821911096922 0.0 0.026338815689083295 -0.018184516106191602 0.0
81 1 17.311022192681143 11.840782440180638 0.0 0.028980894008688928 0.008410057045862333 0.0
82 2 6.46381919833235 11.447236881269626 0.0 -0.0007092396506716533 0.0895415406147396 0.0
83 1 16.90950370674014 16.68155085437125 0.0 -0.08521008805242485 -0.0959473759772795 0.0
84 2 4.802748963982977 14.994754276948454 0.0 -0.050957234917096486 -0.06212874164120745 0.0
85 1 6.833265158877702 0.4296536860863219 0.0 -0.013871085798926156 -0.028514581016337956 0.0
86 1 14.443266788805683 9.130113047968665 0.0 0.08799125088203527 -0.04269884438618577 0.0
87 1 2.2410408174205725 11.280120988902446 0.0 -0.11414659528473238 -0.12145027554121623 0.0
88 2 8.269471987919315 9.96743585330916 0.0 0.02262433035168327 0.06606924510559543 0.0
89 1 18.62757638178164 1.179650403574667 0.0 0.009884823111222792 -0.06871791779955297 0.0
90 2 10.241404800908445 3.0463919649656566 0.0 -0.04723919669688618 -0.014310437105224092 0.0
91 2 4.905360557662961 16.212331915378115 0.0 -0.004461272024465835 0.03395709182074964 0.0
92 1 12.66541133985151 10.42881583278076 0.0 -0.005363600830778836 0.06185856940022688 0.0
93 1 17.990245087253758 3.842981433937786 0.0 0.042996004269192076 0.006965097438589858 0.0
94 1 14.188283214828562 16.852608709862455 0.0 -0.0929552173258568 -0.045397441360067424 0.0
95 2 8.4165143626805 5.910192108084033 0.0 -0.023996595214680425 0.011318968462199177 0.0
96 2 6.248466970988173 13.472345565113045 0.0 -0.026327247803071073 -0.048964712874593856 0.0
97 1 18.01420831590191 11.78122460464424 0.0 0.004242328617316153 -0.02616585419739485 0.0
98 2 0.6725439101414742 15.788396821024056 0.0 -0.006770076359715594 0.05104652063593651 0.0
99 1 10.94974223543893 18.045287635850105 0.0 -0.03358444106656475 -0.03742148139914662 0.0
100 1 4.251832744911301 8.611322430655504 0.0 -0.04559629395163042 -0.004394734070654467 0.0
101 1 14.788978380263602 7.650401048218865 0.0 0.044681872826098604 0.06738893234079317 0.0
102 1 7.128346921479366 18.03899393824795 0.0 -0.01782630861307064 0.0808588837745153 0.0
103 1 15.464501005222527 0.010703103229446934 0.0 -0.09028320679496978 -0.17270515899570482 0.0
104 2 1.4318252044862558 19.153181234868317 0.0 0.025123111094912456 0.012745678478362034 0.0
105 1 9.126855518015244 18.040759501508173 0.0 -0.09819207553206492 -0.047844895224078914 0.0
106 1 9.106148022486375 13.775918692407897 0.0 0.05294116116208749 0.07913473040316632 0.0
107 1 1.5862484079349175 2.5508640262849975 0.0 -0.07276000388692887 -0.08483323278289627 0.0
108 2 9.108688066187288 3.6045986041637312 0.0 -0.021979379539352223 0.0036124071675851036 0.0
109 1 8.822204510670556 15.941059575130765 0.0 -0.058101379531729815 0.14515505717208999 0.0
110 2 4.7514669470095825 6.944899242228094 0.0 -0.06424319349027549 0.09954281886810222 0.0
111 1 1.000797949905679 18.112924294780267 0.0 0.04207510258819923 0.12744702005033146 0.0
112 1 15.875622000549134 15.838317503714038 0.0 -0.07522541475693341 -0.07736656593198363 0.0
113 1 0.9290203900196738 4.157747243724311 0.0 0.0734473904967118 -0.010047836081702705 0.0
114 1 1.9902715786438703 5.849732164712859 0.0 0.06610488132716122 -0.027676447364783086 0.0
115 1 19.6328553478585 13.995773281923416 0.0 -0.08221887731405599 -0.1458488229233184 0.0
116 2 17.719473419612257 6.164787392856051 0.0 0.019342513775058887 0.04453781566030446 0.0
117 2 5.227548329683774 0.9760347050275786 0.0 0.019948474601649186 0.03140745632370445 0.0
118 1 10.720182175863632 16.697773066888754 0.0 0.033780554570998114 0.012780214958419729 0.0
119 1 10.024561644252342 16.488036997135953 0.0 0.06158236835423953 -0.004666351391818396 0.0
120 2 2.0989806367013943 13.040095563216246 0.0 0.017589912182246516 0.012660827358823038 0.0
121 2 6.918650252595397 19.09560293246554 0.0 0.0899521057607069 0.054380052008827395 0.0
122 1 12.445374437647759 18.980838217845783 0.0 -0.048723354222059416 0.06006858211690459 0.0
123 2 7.395864502804325 13.987871169554799 0.0 0.0808647331798006 -0.07128826841452912 0.0
124 2 17.463667441719032 18.90194454869334 0.0 0.020582257120184636 -0.015522222050922315 0.0
125 2 4.349723423959323 0.165970254944658 0.0 0.004904670301830056 0.0416731791010755 0.0
126 2 4.09826184654324 2.8590083562991944 0.0 -0.002004748064246517 -0.027263513254846147 0.0
127 2 7.671269112383081 11.157078447284537 0.0 0.03803122457358095 -0.04813170704951385 0.0
128 2 3.4621988824669567 19.09846674063838 0.0 -0.015059900705320213 -0.1303952472268276 0.0
129 2 19.301827940174906 16.47192432163094 0.0 0.0023486580688574406 -0.04482334627669486 0.0
130 1 6.316686668428118 3.6496326853213943 0.0 0.023540330647624255 -0.04093991855469379 0.0
131 1 6.1468686513863835 1.5146369450526016 0.0 0.10135368271353974 0.0756102369106583 0.0
132 1 10.302721928806658 6.27012945696367 0.0 -0.040500058905062614 -0.05962857362574218 0.0
133 2 2.1145161875193 10.142353334938255 0.0 -0.05682653293053353 0.06824637521436386 0.0
134 2 13.848417624931743 10.102755547340564 0.0 0.06324300088934588 -0.01573523681357003 0.0
135 2 15.535791973325777 17.856821382226006 0.0 0.053847815466841316 -0.06255880804890676 0.0
136 1 8.053480537935691 2.240150259263391 0.0 -0.05277779861206321 0.03172476680892826 0.0
137 2 10.823456168306354 5.308961240883279 0.0 -0.09623259491723439 0.015556913450228417 0.0
138 1 9.772541556223505 18.297809380818595 0.0 0.032416037265355135 0.04080870185962922 0.0
139 1 14.55463610900479 8.396893045314773 0.0 -0.05072685014038477 0.0249221937656827 0.0
140 2 15.183565918068215 1.8646809199903274 0.0 -0.003889099653317067 0.021554733483562034 0.0
141 2 18.885792116375402 8.064318627762741 0.0 -0.018163243878586196 0.0016364583984372627 0.0
142 2 0.8919990272407965 9.58832826113563 0.0 0.0325034897354272 0.0882198592481975 0.0
143 1 11.177736479584564 16.17396511640315 0.0 -0.09928688019004503 0.11213404532167565 0.0
144 1 17.296060854020997 2.739941659100595 0.0 -0.08891531958067918 0.010917412261483142 0.0
145 1 4.020566985646492 13.55512139737355 0.0 0.09510544144626795 0.05155777073883194 0.0
146 2 12.865330802111318 4.3054479725988495 0.0 -0.025788074640385947 0.024342781977492723 0.0
147 2 6.567627714515921 8.672252504450737 0.0 0.02785211520477376 -0.008478968556818492 0.0
148 2 16.175421018921895 2.7096969495406014 0.0 0.0036482580905445303 -0.01524638678534386 0.0
149 2 5.9976366778032135 15.57008876705191 0.0 -0.043489802373824146 -0.05581700004259848 0.0
150 2 7.241843097044743 1.4770247633521896 0.0 0.007994408726170577 -0.06929175961584719 0.0
151 2 5.294342354068755 9.025758206513013 0.0 -0.003035110721306316 -0.019648714867924195 0.0
152 1 12.448766521262028 15.977045667613885 0.0 -0.09419102843605295 -0.10558335891564163 0.0
153 2 0.6791875403347255 0.42234232415019957 0.0 0.05288228053039503 0.02231486498525244 0.0
154 2 4.872644120648037 17.46805666599015 0.0 -0.0035533942483263574 0.001172815369246691 0.0
155 1 14.496427846733878 11.64177862335345 0.0 0.10075351748354798 -0.07597837785997887 0.0
156 1 15.262698634804288 16.163861958273344 0.0 -0.02167279343328624 -0.09821211882404247 0.0
157 2 11.811383387565549 12.732270599904615 0.0 -0.03627327760330802 0.041147115499511666 0.0
158 2 11.498871301052581 4.057128106207732 0.0 0.007685034686115958 -0.10335447991096562 0.0
159 1 8.178786706146356 4.1689248957539835 0.0 -0.01816565938823012 0.08435926642741147 0.0
160 1 11.95065152652215 10.444214795308888 0.0 0.0049637933547497 -0.10864042069373477 0.0
161 2 10.027369798953487 19.477367618588914 0.0 -0.038534130141471445 0.08711507507523635 0.0
162 1 12.201034614732526 2.0343952718940406 0.0 -0.12267282245647616 -0.12801278331672944 0.0
163 2 2.437427018016954 4.806872262568525 0.0 0.04764244272178697 -0.0052200279730596245 0.0
164 1 2.984824767312317 1.6838366623452825 0.0 -0.11229316116504603 0.09939906964633907 0.0
165 2 3.16883086319783 0.6106044498311114 0.0 0.03209929483258147 0.08101812815105901 0.0
166 1 3.214606187693854 12.897028274293573 0.0 -0.049945200170326234 -0.021371756874074367 0.0
167 2 11.85804208438692 17.00895683046349 0.0 0.03991700653490517 -0.023607590601760417 0.0
168 1 1.132500055493508 3.5235938653555636 0.0 -0.14420551249726263 0.016481676607542795 0.0
169 1 18.68675178069481 11.940292062111682 0.0 -0.0845784319963413 -0.051627493787431034 0.0
170 1 0.4345894544153063 10.649797390655158 0.0 -0.0022742259927638407 -0.1229730863611822 0.0
171 1 18.721252884112886 12.8707268047787 0.0 0.09618858494722705 0.029584626580360703 0.0
172 1 13.925004557421783 17.574289531866174 0.0 -0.10933312997145567 0.0049326527997327575 0.0
173 2 16.062840922538495 9.102217180774439 0.0 -0.028637339507051923 0.03416125864891353 0.0
174 1 5.79866539836168 14.473403865141872 0.0 -0.03904448662063314 0.09416170594616945 0.0
175 2 16.969790310892837 1.6806675830831426 0.0 0.0012836454974363108 -0.0010716849854868087 0.0
176 2 1.905755615672574 8.89088889277771 0.0 0.04904387262727477 0.02672856621003937 0.0
177 1 18.66049214029284 4.895697306468978 0.0 -0.07511750657920545 -0.08071239306643965 0.0
178 1 9.228693373727914 18.711527871539335 0.0 -0.0660474456602895 0.04693012520252608 0.0
179 2 3.410752228451727 10.04726104499562 0.0 0.06853401687590716 -0.029503315417716388 0.0
180 2 13.657658070095664 7.785515507279177 0.0 -0.11110035393048752 -0.06571372287306645 0.0
181 1 9.033354608376706 14.445686617660826 0.0 -0.09944174758691715 0.001128114993192163 0.0
182 2 12.284270609793154 14.889143749947802 0.0 -0.07622903611644216 0.06937912872157813 0.0
183 1 19.468632035086614 2.5070655913281845 0.0 0.2410030464839741 -0.018206837169632582 0.0
184 1 5.798377762734923 10.572538819046352 0.0 0.05767897417577858 0.03467383779691418 0.0
185 1 9.477993569783273 13.222743942397567 0.0 0.12052540373548673 -0.06485137974323364 0.0
186 1 2.700506584523149 16.0647563828795 0.0 -0.11613050534156483 0.019230877550275197 0.0
187 1 14.580147507806842 17.371834060266544 0.0 0.15563468550156553 -0.038403117304428726 0.0
188 1 19.194615460231052 11.399560233338615 0.0 0.08693185610437087 0.04927249871981455 0.0
189 2 7.906563930328934 17.26306990622299 0.0 0.0673926431054803 0.011826105524586135 0.0
190 1 6.636818502806893 9.732819878165412 0.0 0.019513378749586665 0.02927384247055972 0.0
191 2 16.82793657253612 8.158719664503904 0.0 0.03891550467560701 -0.00826091256180839 0.0
192 2 11.45760227259046 2.7841100280953492 0.0 -0.08872164587916964 0.045588415820432895 0.0
193 1 8.990216622934424 17.39747653954835 0.0 -0.006228956247885443 -0.05422091582286986 0.0
194 1 1.7268817999176993 3.235803619874933 0.0 0.18039269885260098 0.09175798217952513 0.0
195 2 7.541142253365862 5.02459861004527 0.0 0.03976109842228512 0.010596383034875454 0.0
196 1 11.356130032664035 10.79432586127748 0.0 0.1133030348618257 -0.06919681947334606 0.0
197 1 9.01899955601027 0.2045043246320202 0.0 0.054635775673817485 0.07423974059874897 0.0
198 2 0.7636238816076172 13.35645115917465 0.0 -0.003778765428723262 -0.04588689425133172 0.0
199 2 10.913899928472034 11.799599845585824 0.0 0.04335945834910103 -0.029768984270508 0.0
200 1 9.552142362984615 7.947159857914062 0.0 -0.07584829287888632 0.019814585696680397 0.0
201 2 0.21671249282983623 18.89820770954046 0.0 -0.14131695619205653 -0.012830127719218865 0.0
202 2 13.456895420747045 19.399940914930937 0.0 0.023804552227958808 0.0023666187305344034 0.0
203 2 10.157260292351314 4.2904610500475355 0.0 -0.06720771152234069 -0.09333156999682617 0.0
204 1 18.11602534019111 13.973188303399393 0.0 -0.02310100112012503 0.08890071008476934 0.0
205 2 2.016014733363552 15.191613361227969 0.0 0.05819830174562314 0.07634281980364128 0.0
206 1 13.08691950816707 15.713246386044036 0.0 -0.10856997481001705 0.019607170387569164 0.0
207 1 14.428999320935462 4.746201829303793 0.0 0.02367934232694667 0.03546430781397087 0.0
208 2 10.518076734641708 7.377162650562 0.0 -0.1569784808211789 0.0005378570876164449 0.0
209 1 2.316615633351111 1.7061411984117265 0.0 0.06272325786789695 -0.04737512914349734 0.0
210 1 1.3128430380008969 5.908653775655904 0.0 0.061763062843127256 0.10507212597700712 0.0
211 1 1.2711005066409908 7.987456365753222 0.0 -0.07980754745594708 0.126092630488136 0.0
212 1 18.237041824805758 0.6122885461198877 0.0 0.05591091139608883 -0.028273577722745673 0.0
213 2 10.628601790702223 1.8594713949226203 0.0 0.08529357247540496 -0.0073036623116978705 0.0
214 1 13.971147107786402 4.2350050223961695 0.0 -0.06399251014594516 0.030164372734679534 0.0
215 1 12.61456107416671 17.82254428374871 0.0 -0.06219745593349842 -0.04375726077387686 0.0
216 1 2.8771028692437337 12.293980545503192 0.0 -0.030974316232858255 -0.11282545425090952 0.0
217 1 3.9111810355766368 12.879591452789498 0.0 0.08601257401286222 -0.0725670754195999 0.0
218 1 17.811043873945287 17.277374266262147 0.0 -0.052283216909405746 0.06490842299654002 0.0
219 1 17.9503621504272 1.2147095883641135 0.0 0.0998080705735917 0.1108660908919082 0.0
220 1 19.175142562658287 4.449738100841896 0.0 -0.011203010963681518 0.06607808826590625 0.0
221 2 11.33432224912535 19.105091573349206 0.0 0.025121784775256353 0.10194387722881834 0.0
222 2 5.033456848988954 12.959315334243247 0.0 -0.001606513579255627 0.03530289233412326 0.0
223 1 7.157089042492206 10.17972926874366 0.0 0.012944150860416462 -0.07091945685413241 0.0
224 1 8.49413482239666 14.037774121300883 0.0 0.05220968409137886 0.011281554836739573 0.0
225 1 14.557972172683245 10.963418765628038 0.0 -0.12873210492505366 -0.01954893639265083 0.0
226 1 15.038703758709254 8.853749112173196 0.0 -0.04071475973172568 -0.031183262753234017 0.0
227 1 18.61279018377379 13.525013949690882 0.0 -0.20323598240817126 -0.02372216066134707 0.0
228 1 16.619606297304763 15.709214947960252 0.0 0.0008324514427614791 0.06509234350922084 0.0
229 2 7.115211125243786 16.213004819081874 0.0 0.008987404769262951 0.009137659681712026 0.0
230 1 3.5469582799934325 12.290327594148167 0.0 0.034257076997173334 0.02432849193443924 0.0
231 1 7.286602110144847 9.506745635228585 0.0 -0.20995231618168508 0.13347273706820856 0.0
232 2 9.56006599826864 5.432511405138832 0.0 0.03243514747017989 -0.11255756473949155 0.0
233 2 11.452763799489452 13.931401830104253 0.0 -0.006968513949436298 -0.05978173048636838 0.0
234 1 17.98231879702674 17.910326980548266 0.0 -0.005925041855591201 0.09014127325844339 0.0
235 1 18.259848761791826 16.798347724926185 0.0 -0.026793055554699245 -0.0374344638909403 0.0
236 1 18.529241885161213 11.286702234328986 0.0 -0.02912093219556142 -0.11712172923738891 0.0
237 2 4.7629637096729 10.24771254584833 0.0 -0.01447985759960433 -0.01573050081381581 0.0
238 2 1.211905164749896 12.177344471090578 0.0 -0.008572372010690879 0.09959912407086495 0.0
239 1 11.60762740912701 18.06272002264208 0.0 0.16292988089337038 -0.0025726890282762884 0.0
240 1 0.937659204135594 17.43858122481543 0.0 0.016911685415383418 0.05267980880311108 0.0
241 1 6.470590894358472 14.581299147618864 0.0 0.01819348547265441 0.053193596592424515 0.0
242 2 8.103032024824483 7.153698611659956 0.0 0.003367709453971072 -0.034756095215290626 0.0
243 1 5.637803093153805 3.7089901027281593 0.0 -0.018635006792355437 -0.026161044061166483 0.0
244 2 11.0255665246163 0.6303647509278296 0.0 -0.11030047527423406 -0.023794547798393087 0.0
245 2 9.750008070395292 1.0145709337974949 0.0 -0.12171157221841372 -0.07420794104469255 0.0
246 2 8.12032205399602 15.088523685793414 0.0 -0.10758553053288217 0.024734303252316445 0.0
247 1 17.887251400932115 8.536547258338498 0.0 0.06364515204173175 0.04909918899464208 0.0
248 2 19.589149192737306 17.710761058701642 0.0 -0.0202114714078484 0.12414463170032311 0.0
249 2 17.37140444071439 14.84248746457769 0.0 -0.07871619721555716 0.04758995288337447 0.0
250 2 10.137892082457446 14.149185175314782 0.0 -0.05513027937276823 -0.021543212081320387 0.0
251 1 6.843978835191898 17.429974250914846 0.0 -0.022847009839701744 -0.12622085299458477 0.0
252 2 16.851362865417542 17.795923106561325 0.0 0.05124211267215804 0.006205369065504641 0.0
253 1 13.300538989700783 17.890453426567007 0.0 0.1364015420662027 0.11324583582255231 0.0
254 1 4.630982078596442 5.855318443680995 0.0 -0.10682324456489158 0.022242284970978868 0.0
255 1 18.071988595728197 13.094078623286858 0.0 -0.00742197250165214 -0.04617750558719711 0.0
256 2 4.772717215542362 18.728467701180087 0.0 -0.06274620106471805 0.04400901951709992 0.0
257 1 2.8321309203134346 10.95745734135935 0.0 -0.023672111462860523 0.041076393636529665 0.0
258 2 3.71592900027657 16.534539664195062 0.0 -0.03590868982528251 0.024632219932241482 0.0
259 2 15.593680588994012 11.376984989470483 0.0 0.038261309204604445 -0.0016231855874309072 0.0
260 2 19.698523504947794 1.4613297929718796 0.0 -0.04783917196177841 -0.06251381601261795 0.0
261 2 17.15573040463026 0.4048255315633727 0.0 0.037518189490499454 0.04676553011118434 0.0
262 1 1.567372637347624 11.142491765378 0.0 0.10484846171154388 0.020562982729672132 0.0
263 2 9.617404798331064 12.128233395017036 0.0 0.03750023886721768 -0.014874174005659763 0.0
264 2 6.001283649705032 18.190510985977944 0.0 0.06114171756640658 -0.069856904765387 0.0
265 1 15.242446831033782 8.182495687114802 0.0 0.023975659873957292 0.04933036167768782 0.0
266 2 11.424534901168688 6.399764158748222 0.0 -0.06511237930822596 0.0440924675112303 0.0
267 2 17.07493414282241 13.568858508809264 0.0 0.002482916543915375 0.027725983551335768 0.0
268 1 0.5733999937245443 16.87857320664279 0.0 -0.16334259477636281 0.08185981897149147 0.0
269 2 5.925765764294902 6.498154980819573 0.0 0.031165926212129127 -0.011173519719808605 0.0
270 2 7.121339968521601 2.8860576647037886 0.0 -0.06402709936907765 0.0014581454104582662 0.0
271 2 8.950014462833124 11.0771579072323 0.0 -0.09580923747016723 -0.05036392852580749 0.0
272 1 17.21862321426367 16.0380118975258 0.0 -0.004457672905196442 0.0006748296643665763 0.0
273 2 12.258475534812593 0.29184822956713286 0.0 -0.03893294501724178 0.06597216146525177 0.0
274 2 16.912942408121914 3.7698059823755337 0.0 -0.0162021283359579 0.027304965758216275 0.0
275 1 4.751603827013491 5.195480592707156 0.0 -0.06504660800373373 0.022833618992980156 0.0
276 1 10.197817921334524 9.052875044107575 0.0 0.06472810503228042 -0.019891950895236016 0.0
277 1 18.837872093845537 2.2357847225526775 0.0 -0.0919403822786352 -0.06964855011669256 0.0
278 2 13.144712575900291 5.7726913353104505 0.0 0.0032637733841058255 -0.08971163782738682 0.0
279 1 4.200977401055505 9.279840428751005 0.0 0.07865262309033216 -0.07887770159019108 0.0
280 2 12.43734741524179 8.155868725981932 0.0 -0.03620147499876652 0.04047476041167391 0.0
281 2 1.5439611395356176 6.92918437659826 0.0 -0.006802840500544285 -0.03497616240821957 0.0
282 1 15.7848257152608 7.729430466499523 0.0 0.04142056881744385 0.0560924123082072 0.0
283 2 11.174895449842895 8.486139443787087 0.0 -0.05473633635325289 0.05059859631886611 0.0
284 2 17.57757349096415 4.893378019300171 0.0 0.06722063026572275 0.0002644352424559677 0.0
285 2 1.635303091181674 16.53174895252938 0.0 0.031154969003651094 -0.05531181160985056 0.0
286 2 15.429067957667792 5.158125363250662 0.0 0.003590126655726923 0.03234145391471779 0.0
287 1 12.418419335299596 3.292410313033129 0.0 -0.11941688822614474 -0.0631826932275197 0.0
288 1 6.324356597672558 2.1550201471218773 0.0 0.07443788466010628 0.008221223233240786 0.0
289 1 18.326745864776033 2.7251145982281892 0.0 0.03770201594182336 -0.18615517453492156 0.0
290 1 10.434050833130845 18.47650599940574 0.0 0.07566124331573101 0.0250336892955245 0.0
291 1 8.262639957542074 2.869198130205 0.0 0.0037467916530532527 0.07614258077938744 0.0
292 2 13.04518256045643 12.467787157577161 0.0 -0.037341159816782474 0.03205345588083547 0.0
293 1 18.66467673988062 5.564725344148537 0.0 -0.006497435998068398 0.0720988116572098 0.0
294 1 0.9721165679588135 2.8559162151503124 0.0 0.019265346099701243 0.07856495919890819 0.0
295 1 13.790501935379913 4.8986312379445 0.0 -0.022777002359861156 -0.010786330883104116 0.0
296 1 1.368967361861941 4.638245284526967 0.0 0.04380736343372936 -0.0009513897583556968 0.0
297 1 9.653992922144305 17.616368838844807 0.0 0.03039710962245717 0.0009677476010094899 0.0
298 1 17.831090437751243 2.3175816831980907 0.0 -0.0879886374550459 0.05693822159484873 0.0
299 2 5.231643516871932 2.194980483984547 0.0 0.0037278715444862016 -0.02938565893619428 0.0
300 2 8.134370252770676 18.510228349112097 0.0 -0.09588882043271756 0.054455648062972574 0.0
301 2 5.7830881433965065 19.631207145777026 0.0 -0.11127424174378917 -0.09575627483726858 0.0
302 2 15.702952395032126 3.924523695489511 0.0 -0.021468406562500812 -0.10668732356756379 0.0
303 2 6.899575183331026 7.456471891248089 0.0 0.04222745149713053 0.0817528860915171 0.0
304 2 5.1757608661434835 11.610931321809977 0.0 -0.05471168969236384 -0.09043614446683544 0.0
305 2 13.540298071561807 14.678139645444599 0.0 0.05854469592150144 -0.034151071441168294 0.0
306 2 0.04564469668280831 3.553934044917205 0.0 0.05548873179930141 0.012416649760005958 0.0
307 2 15.746475816482725 13.588121295859889 0.0 0.02751363355131022 -0.1316712659195276 0.0
308 1 18.204146098756397 12.431138099061343 0.0 0.07978928309526537 -0.1472012862042687 0.0
309 2 19.697331252042133 12.385207411336905 0.0 -0.0009325115960304974 -0.01347949740593458 0.0
310 1 14.870210066980913 16.732243505234475 0.0 0.06945799011661948 0.06843355660256499 0.0
311 2 7.162508040157143 12.529932208394033 0.0 -0.07932741629426862 0.05051702873139651 0.0
312 1 8.026779426838672 3.512230111883115 0.0 0.01067889966686959 0.01734344751131474 0.0
313 1 11.789984582746142 15.896465447096881 0.0 -0.035604589553162244 -0.049152331548106096 0.0
314 2 12.743994793645637 13.685348793758699 0.0 -0.042158416293160944 -0.0025871106223516963 0.0
315 2 19.23654340598977 0.2232640162021949 0.0 -0.03653384104556497 0.057985726847947214 0.0
316 1 17.532271504552764 12.532096503656216 0.0 0.1155489257879901 0.03453837168731646 0.0
317 2 18.72104924145494 18.735050916306765 0.0 0.1408941947944591 -0.04852884421399217 0.0
318 2 3.6520818851226915 5.127973809998005 0.0 -0.020335736654211446 -0.006249918812943499 0.0
319 1 9.992978189343155 10.40334152461189 0.0 0.05803686902834435 -0.0687491844281032 0.0
320 2 4.5495572247158895 4.118579815318969 0.0 0.03132332330242021 0.009441485721007798 0.0
321 1 1.5764940501483684 17.66328028135533 0.0 -0.05014726986174199 -0.10211927357387796 0.0
322 1 7.489072683203708 3.9385231696766954 0.0 0.07217698459624422 -0.007689178692211423 0.0
323 1 5.339818425709558 4.895453111093735 0.0 0.056306575210892475 -0.004929308583897953 0.0