ITEM: TIMESTEP
0
ITEM: NUMBER OF ATOMS
400
ITEM: BOX BOUNDS xy xz yz pp pp pp
0.0 19.7609 0.0
0.0 19.7609 0.0
0.0 10.0 0.0
ITEM: ATOMS id type x y z vx vy vz
1 1 4.538233947869217 3.6205465244216506 0.0 -0.11164782976247198 -0.06464994907192036 0.0
2 2 1.8707495906103948 11.839406160273224 0.0 -0.045446244791301785 -0.07243306457078652 0.0
3 1 6.301366988404755 5.892426466134 0.0 0.003571773449835356 0.03314874583631964 0.0
4 1 0.3390254331175375 8.289960110526405 0.0 -0.10445069477373983 -0.034071690665959116 0.0
5 1 7.64483848520552 15.86688822582795 0.0 0.08990604177632999 -0.01986508096037916 0.0
6 2 0.4867299851369312 11.616244251062136 0.0 0.017521558306996886 0.08519818066362117 0.0
7 2 17.601946469220522 17.049410662119186 0.0 -0.09887456432287257 0.009920379879555637 0.0
8 1 0.823363279904676 16.493876510412164 0.0 0.08200502092859424 0.01187918426685779 0.0
9 2 4.539090930751222 16.444703684682498 0.0 -0.11182374986591924 -0.01872165764291983 0.0
10 1 1.499915442726734 16.730766631608432 0.0 -0.046583869085517426 -0.02692653907555785 0.0
11 2 5.433942684036267 18.86399117130041 0.0 -0.06321724486492485 -0.10382636329810553 0.0
12 1 11.550367878821287 8.966210051677363 0.0 -0.11236833911882765 0.08986527021657739 0.0
13 2 5.005229090951238 0.2739641114483343 0.0 0.0043918740069175885 -0.07026470620786691 0.0
14 2 12.355617945821042 0.9476587627037291 0.0 0.05813156302762681 -0.026589092765377704 0.0
15 2 8.310275023526732 10.244625572720969 0.0 -0.012987890117736128 -0.04784914982862519 0.0
16 1 9.58296925272795 14.908103408646827 0.0 0.07915455859043802 -0.12932660352554656 0.0
17 1 9.776932720908414 2.2100267075861564 0.0 0.042636920690974384 0.005481684020052852 0.0
18 2 17.816409005724957 3.239153005804268 0.0 -0.005745917892023532 0.00878963532965363 0.0
19 1 11.462193252348275 18.107375753464122 0.0 0.012626862250561506 0.054517282828300456 0.0
20 1 13.727336114509033 9.561185155391852 0.0 -0.05055646282794504 0.03568469694749834 0.0
21 1 7.380290565977418 16.50516301246733 0.0 -0.022636483750044234 0.046684335491156574 0.0
22 2 6.309328064989827 7.6099356842549275 0.0 0.02832423757465318 -0.0780936573635125 0.0
23 1 14.379252779725519 9.578439884743997 0.0 -0.023601367861418802 -0.00423100441875235 0.0
24 1 3.3005084980389534 17.60400867857743 0.0 0.06571932644824724 -0.0035894820848393575 0.0
25 1 13.317943986794807 0.4923601687763911 0.0 0.07724858384636922 0.05047784810867926 0.0
26 1 19.232212845913814 16.570287182433052 0.0 0.07024284449971813 0.06854474346984611 0.0
27 1 4.304737413985064 9.82242768574313 0.0 -0.04556884985823345 0.1269389969349729 0.0
28 1 2.8010346854742254 3.8979751540741967 0.0 0.00956330342362648 0.010426430445247142 0.0
29 2 6.261008518975043 17.75778363143085 0.0 -0.011610236757728229 -0.011740984373283914 0.0
30 1 7.251321881586915 17.294346590937835 0.0 0.038026809749051864 -0.12710679531765573 0.0
31 1 12.935007078580103 7.686888564390232 0.0 -0.049635555378944256 -0.06663689379171922 0.0
32 2 4.694515942379431 2.5363995622803297 0.0 0.051966607653531734 -0.023048784943926752 0.0
33 1 19.18983229197737 5.066200306788122 0.0 -0.003449100685610241 0.000658695625744561 0.0
34 1 10.0222844657494 2.8707878923556684 0.0 0.05175422475116139 0.06698302356232858 0.0
35 1 14.133240507100856 10.239589972444339 0.0 -0.02875668064337573 -0.1764157626525103 0.0
36 2 0.45351574995632055 10.275960467012958 0.0 0.051159718454712406 0.01554893083069204 0.0
37 1 19.759823400320723 12.671126516097553 0.0 0.11002206346753476 -0.06138275839483572 0.0
38 2 10.672897991350466 7.306441176336724 0.0 -0.03123613771169479 0.013506765618658807 0.0
39 2 11.909204095194008 4.174996120250971 0.0 0.03568526475332094 -0.18240717920173974 0.0
40 1 12.300495098626232 15.77399996613383 0.0 -0.06381216332914394 -0.016982529462737473 0.0
41 2 12.531604628431374 19.44167253013071 0.0 -0.03574321177203527 0.03471303338763068 0.0
42 1 14.405557076904634 5.034783486870974 0.0 -0.012943371585630527 0.0881846051851895 0.0
43 1 12.649947734155342 11.840976561862272 0.0 0.001620990344246052 0.030698428832098994 0.0
44 2 3.357948935146192 5.354699409195301 0.0 0.036900243143622995 -0.015239401029977628 0.0
45 1 16.132099511784695 9.911309477391896 0.0 -0.1544034504429171 -0.07414077629270727 0.0
46 1 5.387209031416884 13.656536829165907 0.0 -0.057998712096611005 -0.07038070604848963 0.0
47 2 0.4286039095470302 15.477854256557764 0.0 0.06095594071359851 -0.07708078966460923 0.0
48 2 8.940839394499205 16.929991261091256 0.0 0.023600604545947465 0.053179567581672 0.0
49 1 11.966603851359032 8.466204874035126 0.0 -0.04782563758193799 -0.011363292800310464 0.0
50 2 3.2108406136793617 9.69957399072205 0.0 -0.06670960911550408 -0.09757514912658362 0.0
51 1 14.832592332586838 10.055494137880554 0.0 0.07985125056199883 0.03891266479823882 0.0
52 2 9.061330629483285 5.71493369116397 0.0 -0.00043736802540324254 -0.09025439029791302 0.0
53 2 8.743500811184651 2.4679449526767705 0.0 -0.06767649171023433 0.012141703499518158 0.0
54 1 2.627193514810902 16.419289320615196 0.0 -0.04853519440992758 0.07998257551091892 0.0
55 1 5.10972391599933 14.265668840568388 0.0 -0.033913876561254976 -0.06513919075533951 0.0
56 1 7.2400653036947835 4.337325551227867 0.0 0.06080573458638878 0.03514993919420166 0.0
57 1 13.613420078002573 8.894631930145112 0.0 -0.21040632226218703 -0.013106686159708588 0.0
58 2 14.958694408073697 17.068830820242955 0.0 -0.010808332263058381 -0.08858371179712872 0.0
59 2 5.944413543688316 2.742788302332632 0.0 0.015534046785625132 0.0636552809816121 0.0
60 1 19.59916795940721 2.8373859661385548 0.0 -0.05478474184067127 -0.02863259398581454 0.0
61 2 15.669112981786713 0.6665086343735797 0.0 0.06088434354676797 -0.006022132056082587 0.0
62 1 4.032817534560776 7.589087657240772 0.0 -0.040235668835434925 -0.02949882814020839 0.0
63 1 15.957116956745196 10.80992523914746 0.0 -0.09718439786439068 -0.0057354598655263 0.0
64 2 8.201228315616484 6.635144192788692 0.0 0.060233654893131934 0.08353547223962185 0.0
65 1 9.883672718225469 8.115435570657281 0.0 0.01881342976677543 0.12701502180193527 0.0
66 2 2.2463933225203356 19.462146241975418 0.0 0.0007509315023437658 0.049578334372007676 0.0
67 1 12.655345505157664 14.60019675172 0.0 -0.04775917667291554 0.08326836711757628 0.0
68 2 5.743459620356583 16.601052704391503 0.0 0.01834912717700621 -0.04712044223250793 0.0
69 2 1.626613180775885 15.05403506110468 0.0 0.0257624763113272 0.0594272797519209 0.0
70 1 7.4052987188162085 9.63932816247105 0.0 -0.07932272367332287 -0.052234326256128026 0.0
71 1 18.601468758821273 9.853034001661687 0.0 -0.050395194068685166 0.013031157698887972 0.0
72 1 12.226665849872289 15.111108250344168 0.0 0.0134249001480961 0.08684314599708899 0.0
73 1 4.86117739183013 9.424969904070176 0.0 -0.13612165386292482 -0.061405429397782374 0.0
74 1 11.911806374630043 13.797538234935548 0.0 -0.10241086907063093 0.03771653571277838 0.0
75 2 6.22143080815227 14.387397185382632 0.0 0.024587651079055372 0.056174695602673165 0.0
76 1 5.418103194728769 4.311201060869366 0.0 -0.10297101307531688 0.03508490816103862 0.0
77 1 17.42108627594439 15.878293346256918 0.0 0.043214450072877296 -0.11492688475842998 0.0
78 2 16.955809305646966 18.159296453801527 0.0 0.011879198083909057 -0.03296494772051362 0.0
79 1 10.873402741255651 8.974607082761883 0.0 -0.16533962703634422 -0.01426148072673297 0.0
80 2 4.272033917361386 13.462134654517536 0.0 0.07007715382757115 0.060960575954954535 0.0
81 1 12.371795436290583 3.214733484759565 0.0 0.029568706332367384 0.05835605299105328 0.0
82 2 16.278172663966114 19.313340231361053 0.0 0.07434017574113091 -0.025044717820448762 0.0
83 1 15.045143356515927 4.820996585147453 0.0 0.0056063798050420355 -0.11724014524372484 0.0
84 2 7.917261202033392 3.484584939972494 0.0 -0.0012939571051088458 -0.028351618357187247 0.0
85 1 15.004148674191558 15.987001855280345 0.0 0.020210555132598635 -0.03405282946771529 0.0
86 1 2.488246989437269 6.085746536159234 0.0 -0.002027456849960893 0.10553543093089168 0.0
87 1 9.501664867502106 8.70454269966524 0.0 0.05099016712416296 -0.0678771558750482 0.0
88 2 18.73602812068969 19.464972105635862 0.0 -0.027511570026910025 -0.0464921224538295 0.0
89 1 4.282334492159706 4.76433979916081 0.0 -0.08705812319941142 -0.004315813299103695 0.0
90 2 13.543879175208266 1.572831546796995 0.0 0.001239880805665999 0.020172224408492787 0.0
91 2 18.959888375436556 15.489545376563457 0.0 0.02751502136506169 0.03745177443748118 0.0
92 1 17.240839395706868 6.007274848143067 0.0 0.12339904602721226 0.11380421920728906 0.0
93 1 17.93292503822079 7.720471519427661 0.0 -0.04759040389810442 -0.012137817577196286 0.0
94 1 7.632836536861387 2.4448763178868163 0.0 -0.05177444456426489 -0.046848487583306786 0.0
95 2 5.5739868725260076 1.4964316135512405 0.0 -0.056378207715937614 -0.02406502578964848 0.0
96 2 11.30190713936158 1.6477814053436568 0.0 0.009873041676281375 0.0014933576045614886 0.0
97 1 3.368422012043403 4.268798620026099 0.0 0.027866541508788433 -0.08384991857910537 0.0
98 2 17.07614295788839 14.501736870945706 0.0 -0.020428756385905474 -0.013432830021570221 0.0
99 1 12.049847769349714 18.437813942204873 0.0 -0.0008972007148078012 0.0781093281579082 0.0
100 1 13.685130356828521 5.595273503830879 0.0 -0.158728586356843 0.043147038562221775 0.0
101 1 8.023497384159292 16.40161734405658 0.0 -0.036350181281035863 0.1253679431172109 0.0
102 1 0.14972225137904127 16.608693364739416 0.0 0.043889682625902315 0.020531689128905038 0.0
103 1 16.477006403054855 12.795114372550215 0.0 0.07256158924175377 -0.0348165031181299 0.0
104 2 18.21290701106662 10.903990831296579 0.0 0.06905881788004589 0.008585375565617536 0.0
105 1 10.283833063626638 12.590369696086546 0.0 0.0016729730489447486 -0.19425410736407145 0.0
106 1 0.7828890838112388 3.7744348970419246 0.0 -0.007715693540678313 0.0044890797339343265 0.0
107 1 4.734014323084199 4.245878782835744 0.0 -0.06548667262968344 -0.13429231332655855 0.0
108 2 11.09977269665584 5.055447851027849 0.0 -0.08275332339646611 0.0065345894916886745 0.0
109 1 19.332742657446698 10.919910860326842 0.0 0.06515275647332149 -0.04559315125030002 0.0
110 2 9.094195157731782 18.16355633432688 0.0 0.004491605195606633 -0.060203501909283114 0.0
111 1 10.42695470427895 2.3082286350440713 0.0 -0.024639415912748836 0.08034048744365711 0.0
112 1 8.039355548161737 11.30255179198746 0.0 -0.004871260967956627 -0.044153498385425184 0.0
113 1 2.524241189873285 2.66015050242262 0.0 0.02173782324837813 0.08668372654941954 0.0
114 1 7.34044724619902 5.015165468072061 0.0 -0.01718138689475657 0.14515369141345438 0.0
115 1 15.62946553965498 5.147939692339875 0.0 -0.08025518068419871 -0.08066410201457137 0.0
116 2 15.400740279661274 13.13282512768921 0.0 0.0938953168036862 0.05040189246517106 0.0
117 2 8.032440946339078 1.4391917887960661 0.0 0.05092378518641548 0.012584301068493384 0.0
118 1 14.909166606361099 3.5392552851469055 0.0 -0.0727685502660926 0.1977699877044881 0.0
119 1 2.0801607721743944 9.643199778044277 0.0 0.023919132912343797 -0.045721628176800554 0.0
120 2 12.509502418353106 10.707999657003217 0.0 0.021342963644240872 0.03822301624706246 0.0
121 2 1.22092660894713 0.4377295274103604 0.0 0.016302979384116473 -0.004882053994426568 0.0
122 1 10.545568348621533 8.38096661640677 0.0 0.06346909005826906 -0.1277485576860694 0.0
123 2 3.5558984252136345 3.120184368180748 0.0 -0.12022981222091039 0.03673221233777157 0.0
124 2 6.321748528572248 13.068313083878106 0.0 0.015247669291009699 0.10182990438484821 0.0
125 2 1.7743303063087408 5.18543373915987 0.0 0.02577612183491358 -0.012555844011891271 0.0
126 2 11.489321130916569 11.468090260059125 0.0 -0.007291783814233228 -0.025632671982516876 0.0
127 2 5.491896944600711 6.70150881754836 0.0 0.000780337206739753 -0.024602825100808745 0.0
128 2 14.999130322895567 7.930740213162065 0.0 0.045449602271777884 -0.010112455334176108 0.0
129 2 4.328673519675542 1.2924321865201462 0.0 -0.00455780242486358 -0.01107782682933751 0.0
130 1 10.16685204830741 8.937864134030194 0.0 -0.06109093825359282 0.035811155028575875 0.0
131 1 18.046735558103055 16.05699558112872 0.0 0.0800896212751088 0.052935774857097495 0.0
132 1 14.671912019123816 13.937098192406637 0.0 -0.09933375831331086 -0.028163355846418076 0.0
133 2 18.3036045974068 18.15392380702301 0.0 0.014811475276512954 -0.03288014347621731 0.0
134 2 13.223658760874718 12.948837435366174 0.0 0.029599821341102686 -0.048176028955915676 0.0
135 2 6.300494714248485 9.715190592889234 0.0 -0.08520606646177832 -0.10541673469557228 0.0
136 1 15.627912915560218 16.19186396419246 0.0 0.003985986704789018 0.0016251604434979446 0.0
137 2 1.115459411406105 1.6836489361743867 0.0 0.03685458715812974 0.05624531646798188 0.0
138 1 6.716864136613261 4.760979359681944 0.0 0.17313834128935676 0.07897640395680804 0.0
139 1 13.299634494343762 8.262411938439607 0.0 0.07172361432608067 0.09111893019075157 0.0
140 2 12.274065687789248 17.37388775628171 0.0 0.006644344447437804 -0.016098616359662647 0.0
141 2 18.24713229092386 0.8265686083692998 0.0 -0.08678439954514 -0.07127133604722288 0.0
142 2 4.099557253607396 14.693725851555117 0.0 0.019964835127742803 -0.019334212079179177 0.0
143 1 7.171891222328863 6.136058399840071 0.0 -0.051579281466366755 -0.10040042084510002 0.0
144 1 4.950667094072315 4.863282140102528 0.0 0.11003534332810214 -0.01393363927280165 0.0
145 1 19.299294085274447 18.55177618330511 0.0 0.04102053242741172 -0.01957681617623213 0.0
146 2 9.227621553234359 1.2292641102486326 0.0 0.020332665002410388 -0.03723251680948287 0.0
147 2 13.12514758923966 18.24906545293638 0.0 0.03563408510925283 -0.0041530733285318104 0.0
148 2 7.485824251429645 14.79427998752343 0.0 -0.04374306062648942 -0.040347685586259015 0.0
149 2 13.623912074556614 14.192092022933563 0.0 0.02088535920512373 0.0630351746991766 0.0
150 2 17.477146581002224 13.200082921396842 0.0 -0.06720617450091891 -0.012652387788899176 0.0
151 2 13.914410039013944 7.275808419599857 0.0 0.038278891798819485 0.08981973734337569 0.0
152 1 10.911222918945258 12.391957070691868 0.0 0.07337519778499633 -0.035784213532241864 0.0
153 2 3.8687411707996247 10.875098412068214 0.0 -0.06686970875564253 0.029403779273789225 0.0
154 2 1.0508748523508555 9.164928414182436 0.0 -0.018134400381541304 -0.003532873674038613 0.0
155 1 16.90705563975788 5.408949859660755 0.0 0.1465413128403096 0.1341511048792924 0.0
156 1 5.4103557249750684 9.056167269833576 0.0 -0.02919328581462294 -0.007000471637558341 0.0
157 2 15.730120606068791 11.969808222342873 0.0 0.021336054257490297 0.031732470067346016 0.0
158 2 10.040921310777739 18.99808500884134 0.0 -0.05297916294267265 0.03624664952460175 0.0
159 1 0.4166942562069653 3.2094376531203266 0.0 -0.07201567738550672 0.10556592774108402 0.0
160 1 6.073755517669698 4.510038738108108 0.0 0.009119375092907328 -0.07612514252560855 0.0
161 2 6.739992974666476 18.889950636212628 0.0 -0.013217612461588672 0.007564367954318261 0.0
162 1 1.3791510369380233 10.833027458068667 0.0 0.07964432909726678 0.08777734746176008 0.0
163 2 17.08831135994448 4.329059636335186 0.0 0.016455243980379536 0.03381613852876611 0.0
164 1 7.3392053355859295 0.6459685492992542 0.0 -0.07004488537988074 -0.11247459167457324 0.0
165 2 2.5692887587617452 8.602965666571583 0.0 0.06288589385081625 0.00028273183490374557 0.0
166 1 2.0840813174529402 3.997731199689274 0.0 0.11720580115830939 -0.02973303931311037 0.0
167 2 9.89124742165032 4.675606385435195 0.0 -0.01582424686414906 0.017518251932739072 0.0
168 1 7.947803148748744 0.31530392044108646 0.0 0.031029312451729442 -0.053777572681766195 0.0
169 1 14.300813098488378 8.906121549716104 0.0 -0.059509435235322816 -0.030862356043534784 0.0
170 1 5.959636040120265 8.656608115528803 0.0 0.058853589024413885 -0.006719236210350168 0.0
171 1 3.390376820300522 7.815536777948561 0.0 0.21142537293774025 0.011342313119185274 0.0
172 1 17.39085649389745 8.115832614506482 0.0 0.004262137438094249 0.09396841135077923 0.0
173 2 5.007197278777357 17.63640278890153 0.0 -0.021699640329139614 0.10414913601175198 0.0
174 1 0.7739617464921404 7.075737351044346 0.0 -0.04989966498342751 0.21236198539093606 0.0
175 2 13.803677946703111 19.284134188754056 0.0 -0.026469151911377827 0.02006465063343954 0.0
176 2 8.783867762934781 7.870258674850151 0.0 0.00620942208243919 -0.010315267498047506 0.0
177 1 3.984286017617777 17.984344234435394 0.0 0.04946177312941693 0.008502766090186232 0.0
178 1 17.580970732162392 5.384255173305012 0.0 -0.05765618522627618 0.060780320175686305 0.0
179 2 5.080268988525552 7.998166169220989 0.0 0.019696920843610372 -0.014347470578799076 0.0
180 2 13.62884819486294 11.268322230219205 0.0 -0.07802419395727471 0.06690989256679175 0.0
181 1 15.575188283174747 15.50512045534867 0.0 0.025623330204343573 -0.024064549781386925 0.0
182 2 3.502525450603682 0.28434575135331913 0.0 0.033333503845890025 -0.05382020174360369 0.0
183 1 12.558294119468151 13.912957773623564 0.0 -0.039836750663191665 0.002516166006354667 0.0
184 1 7.694361736730277 5.604084054170391 0.0 0.029264855534037855 0.11796238902197925 0.0
185 1 16.83605309367861 15.56817039161653 0.0 0.004790409210422317 0.06008472614221959 0.0
186 1 16.6372928678832 11.46229659918631 0.0 0.1645372242766825 0.0014627335169681629 0.0
187 1 14.608035156859405 2.9263768671673396 0.0 -0.0319013282379569 -0.050852851721165264 0.0
188 1 1.9772137453483483 16.245238535970156 0.0 0.0005279409587299761 0.047518921152975076 0.0
189 2 0.811860314577198 5.995866335551083 0.0 -0.042888621053978324 0.010022550016753187 0.0
190 1 10.796018801399612 18.172478682882108 0.0 -0.012071469877069188 -0.07090363488332724 0.0
191 2 16.10462649020659 6.143227184486104 0.0 0.06095926084096192 0.016654411278248113 0.0
192 2 11.2689144279767 19.20161168138767 0.0 0.038434266813035765 -0.011830046522298358 0.0
193 1 6.574532648156069 6.5124371201005875 0.0 0.07276152847952426 -0.06446772205002836 0.0
194 1 10.788482119438946 3.99451217236978 0.0 0.05693041222648442 0.07651362534658379 0.0
195 2 13.351329832288899 15.475128082097974 0.0 0.03232807329948896 0.10466772000744415 0.0
196 1 18.25197360617778 5.544797277536587 0.0 -0.0949372696382556 -0.013107004256157464 0.0
197 1 7.364021875117227 19.753628128095674 0.0 -0.04888940517770279 -0.010609885669991182 0.0
198 2 10.858346064459782 13.517503572758418 0.0 -0.012735766050089883 -0.10854298771189007 0.0
199 2 15.661040281642874 18.194400888273695 0.0 -0.02478564117752976 -0.07165317486532169 0.0
200 1 4.479523278629496 7.079467747928796 0.0 0.030468730294247327 -0.23633822834322818 0.0
201 2 10.270522377821099 0.5295631361363756 0.0 -0.037937428794382354 0.02630515671439409 0.0
202 2 12.885544971757277 6.5230815657055645 0.0 -0.01260240428331799 0.011627867192382828 0.0
203 2 10.385019659509842 10.734344346709987 0.0 -0.03924189937936418 0.03219600359943727 0.0
204 1 18.16067657372612 14.750488503751086 0.0 0.0828014856971762 -0.07840385408152746 0.0
205 2 14.396370579382204 12.284401319199304 0.0 0.08168593045345011 -0.046600810475073695 0.0
206 1 6.654684182935485 8.64950390849405 0.0 0.020338906030559486 -0.0313765092043967 0.0
207 1 14.277308345756044 3.741251542115519 0.0 0.11977076720136508 0.017298083203181373 0.0
208 2 7.162623234810152 12.036832325112279 0.0 0.03881231057919403 0.013235232299597952 0.0
209 1 4.274918981069371 19.228623229862215 0.0 0.14548086899619295 0.004119356608977673 0.0
210 1 13.945531460586096 6.21410210278225 0.0 -0.0728498125305559 -0.13987056001027148 0.0
211 1 10.704491002548226 14.616827351378497 0.0 0.07740912718754046 -0.13717658428791757 0.0
212 1 3.2174207061590407 13.74734596661094 0.0 0.028456817475697546 -0.039981237231549505 0.0
213 2 18.166899141929722 12.137974835218737 0.0 0.004714174390027647 0.01829256431037323 0.0
214 1 16.697092338102163 3.3327769271413725 0.0 -0.032010685291895456 0.0609017648106786 0.0
215 1 12.65513832740225 16.34912402213332 0.0 0.13672181429743355 -0.08576778476355636 0.0
216 1 2.9991743516614755 11.659987025305506 0.0 -0.02417206424172141 -0.02783470220775667 0.0
217 1 1.3388221675926255 16.073959694770842 0.0 -0.03455023330989325 0.004427714805067457 0.0
218 1 10.351794385097415 11.894126158308326 0.0 0.06292794027450338 0.06611200670028464 0.0
219 1 6.807533662259366 3.416269814448128 0.0 -0.08213004229906154 0.06650065675538328 0.0
220 1 6.219042408303577 5.216630087168372 0.0 -0.07554376134835646 0.10159742777178496 0.0
221 2 1.416732722209393 7.979059816784868 0.0 -0.0032441569675386553 0.1101325316675376 0.0
222 2 9.511714172779257 6.918303844245665 0.0 -0.03324866954913572 0.04350303210595014 0.0
223 1 18.897477919172484 5.720000282983348 0.0 -0.08468767352950073 -0.0073001384408943595 0.0
224 1 13.978740941288933 8.335252878521075 0.0 0.09113072725557961 0.1937036896822977 0.0
225 1 17.926286945415885 9.842704502829525 0.0 -0.10045526159766724 0.10180721945219974 0.0
226 1 7.238844336298882 10.302099156944244 0.0 -0.07694963606647869 -0.07687266067529801 0.0
227 1 8.047386414686603 17.715527638833283 0.0 -0.022918284494957607 -0.011159590313331429 0.0
228 1 4.816619445110296 11.504629952510934 0.0 -0.06502985909019966 0.12457117853245332 0.0
229 2 19.48835260422605 6.680471014271809 0.0 -0.0871361435150055 0.013586783481569041 0.0
230 1 5.597468248282826 4.970683838763305 0.0 0.07162172181344748 0.04028660982316561 0.0
231 1 11.957699734645955 16.349455480069768 0.0 -0.06113862402133186 0.007804650823005314 0.0
232 2 13.1776989835097 3.937706193464447 0.0 0.08183151153976664 0.04766830328552977 0.0
233 2 15.68868675638302 14.364523781149556 0.0 0.021238778100352563 -0.06738072555162897 0.0
234 1 18.75511875420064 1.7867734163896978 0.0 -0.12357870132968626 0.11778822756200368 0.0
235 1 16.846808649090466 2.687403783003127 0.0 -0.05225354802872849 0.018892565999697512 0.0
236 1 18.796934051348952 14.351037606880542 0.0 0.03265756157180274 0.06626975189598078 0.0
237 2 5.265975530953498 15.360225923346531 0.0 0.03732984589257566 -0.034610039747729054 0.0
238 2 14.412744027984576 0.6739489332303741 0.0 -0.06617497031625899 -0.04976189361429149 0.0
239 1 15.051840476614718 5.507426985218705 0.0 -0.10959649283852577 0.022048213626441028 0.0
240 1 0.07506029904573813 13.344879749457828 0.0 0.009811500114815557 -0.08745745450008204 0.0
241 1 18.55109500164631 16.522783608160275 0.0 -0.03093396696737147 -0.06533130267052611 0.0
242 2 3.5237172322649486 15.797862444171143 0.0 -0.05855749189073963 -0.007592239203545627 0.0
243 1 2.8267120602944336 17.070156653520254 0.0 -0.06332085003197123 0.04056062462277037 0.0
244 2 11.031527072605268 17.05928199397757 0.0 0.0655658523397833 0.02485541299456745 0.0
245 2 19.415981622623573 3.961494695296286 0.0 0.022500177121695546 -0.01842073911284166 0.0
246 2 18.202796404699722 6.631491728034832 0.0 -0.07938081268827746 0.004822020354411109 0.0
247 1 16.258622954576012 15.962449645327819 0.0 0.06425034041317067 -0.04644779101362728 0.0
248 2 13.59174525265323 16.98149391391414 0.0 -0.0033303970398266465 -0.13151798423209674 0.0
249 2 14.393538269301382 18.16490727354414 0.0 -0.12626294376890748 0.039674741325361536 0.0
250 2 16.291478341022128 1.7279141948252486 0.0 0.0332206070776358 -0.025964458686608044 0.0
251 1 12.617982227581045 8.270627403894794 0.0 -0.023615908405147955 -0.03828037611057379 0.0
252 2 6.384612147761092 10.962935414952629 0.0 0.01156613689738358 -0.025220564800086824 0.0
253 1 10.185205476734955 17.893206733925503 0.0 -0.023014396171390315 -0.1288747143166696 0.0
254 1 19.284915808023747 12.201623955076816 0.0 -0.07032249832896252 0.0594820356310845 0.0
255 1 7.233063295012313 9.000568282390061 0.0 -0.05445504210423953 0.04412102222434482 0.0
256 2 11.974904013371555 12.710347617461894 0.0 -0.11363239309431633 0.0638157821245773 0.0
257 1 10.069485013025565 14.440796754257148 0.0 0.056897359111366584 -0.041898494794429475 0.0
258 2 2.23961872693065 18.008462024394877 0.0 -0.05850145676304225 -0.047219284598342515 0.0
259 2 3.2650169606614368 1.8638893234578477 0.0 -0.023599019935282132 0.1918172067932444 0.0
260 2 12.636626982239273 5.231019033350499 0.0 0.025350684508024354 -0.017550928852650177 0.0
261 2 18.742851920893802 13.20031071118391 0.0 0.11192229965214112 0.004178015102290806 0.0
262 1 9.952954739193522 17.286203756366845 0.0 0.03815962271709179 7.689040929875941e-5 0.0
263 2 17.03613984027694 10.469748612763645 0.0 0.02679020347932028 0.04296817088077077 0.0
264 2 19.049189783093677 7.850685151195097 0.0 -0.07702518042974552 0.029738833252055848 0.0
265 1 6.599466973907964 4.057056145359934 0.0 0.1343084465172643 0.20693779650986371 0.0
266 2 19.47347817582818 9.193230871108097 0.0 0.061500451273770775 -0.0733730142013449 0.0
267 2 8.349683093516617 9.01171318839926 0.0 0.09158124141174188 -0.10999634821141976 0.0
268 1 11.350642174512815 14.47162975977307 0.0 -0.029079675529376917 -0.05521691359678717 0.0
269 2 6.291819784479706 0.38298766973845516 0.0 -0.08247320466968773 -0.11914414617672583 0.0
270 2 17.020132648897025 9.201098279882421 0.0 0.019197971693190638 0.05266105400647648 0.0
271 2 9.606699611958364 13.488444415196536 0.0 -0.018212343887715456 0.004751404116388214 0.0
272 1 7.050337650689819 2.7668090005794026 0.0 -0.06728651284462542 0.00609591866593156 0.0
273 2 16.982828214527704 7.081831123239689 0.0 0.0010228331791089344 -0.016448211022331797 0.0
274 2 4.037603875057836 8.706573373938399 0.0 0.027620714044795356 0.05751501838072988 0.0
275 1 14.314861639959748 13.366951764439952 0.0 -0.01789354884374976 -0.06561318801345825 0.0
276 1 4.050522664175511 4.126631068336139 0.0 0.09154763508905896 0.12653945543277859 0.0
277 1 0.03363890534589188 2.029341730518113 0.0 0.03295261490601223 0.05604978047288531 0.0
278 2 12.62130101662492 9.359295220843205 0.0 0.07008548942730042 0.013149489405258799 0.0
279 1 19.130478986932257 11.55451032815033 0.0 -0.06072549471536367 0.049020154083164395 0.0
280 2 11.6675780976698 6.186505877538605 0.0 -0.007512374374511419 -0.08700671502269718 0.0
281 2 2.442456454057361 7.26779010189303 0.0 0.01824488118871611 -0.06595866424001569 0.0
282 1 1.4297719024749023 6.872033440586447 0.0 0.10041848145625776 -0.05765857545764643 0.0
283 2 3.950917700433394 12.206156366637336 0.0 -0.044764429312221535 -0.05941167210927406 0.0
284 2 9.18887440275495 3.6299495022005024 0.0 -0.06347493429417499 -0.007601811189003086 0.0
285 2 15.72117547953345 2.826429353403732 0.0 0.06342542907460931 0.041669618035563134 0.0
286 2 16.981495716583826 0.669915615434022 0.0 -0.06448516199698345 0.011308669717624741 0.0
287 1 10.285671308002026 3.5474501018423177 0.0 0.091236417720232 -0.0242562993294336 0.0
288 1 19.502147603770496 13.944091191254595 0.0 -0.11337039617500956 -0.0007539271032994446 0.0
289 1 11.365026064505724 0.5321917925055664 0.0 0.024803210723215806 -0.15945451823950912 0.0
290 1 2.1681124045169318 2.0695173164325866 0.0 -0.04823770416217344 0.056529699983254834 0.0
291 1 10.21581143875791 1.6630433118845926 0.0 -0.13589661687080223 0.023156741917244487 0.0
292 2 5.207143767721369 10.455300210184657 0.0 -0.04346958121458407 0.045423047435735754 0.0
293 1 17.832498134871404 15.354036625949712 0.0 0.09185104572540877 -0.06894906520881121 0.0
294 1 18.531096357464126 2.4238124649820016 0.0 -0.04710118807193524 -0.11022210037932224 0.0
295 1 3.4619021214727406 16.876684982361894 0.0 -0.0014632818101441368 0.012607281286501477 0.0
296 1 7.3991654025253535 17.961428234886167 0.0 -0.00945711981277369 -0.0399417710753663 0.0
297 1 18.923654550761512 2.9679111906628357 0.0 -0.1412491742323931 0.05610496912500433 0.0
298 1 1.4099966978770346 4.100953138450935 0.0 -0.05176169908550467 -0.010504514471163025 0.0
299 2 0.8123272830985799 17.561795384387267 0.0 -0.07568246469004748 0.015249888930589442 0.0
300 2 9.451377316588845 9.794724689776432 0.0 0.03420160539542878 0.08640463252157941 0.0
301 2 9.253896016304802 12.317380582692234 0.0 0.010234128796641683 0.04790530688223871 0.0
302 2 4.555343758537561 5.878474196918296 0.0 -0.007253704640299527 0.0048402344495024055 0.0
303 2 0.541253851222084 4.808054146369667 0.0 -0.00447144400318313 -0.06708829891932931 0.0
304 2 2.043037227635675 13.77263876649983 0.0 0.04166802130767839 0.0035667791109696974 0.0
305 2 2.8311423518064407 14.753061150075855 0.0 0.06637889029819177 0.03592799827772814 0.0
306 2 11.45905079482645 10.051587417127783 0.0 0.045040052774834055 -0.09280496485538936 0.0
307 2 16.291814804308753 8.206499994523123 0.0 0.028661119262120924 -0.001668493059456384 0.0
308 1 14.381224765225705 5.69617426027007 0.0 0.05703033562338127 0.07227971339429808 0.0
309 2 11.895524478857912 7.403715564944148 0.0 0.052103295295723065 -0.026386583892805186 0.0
310 1 8.159505422906854 12.611855518138078 0.0 -0.04153687222703269 -0.1567418842246065 0.0
311 2 16.236889819237604 17.090892458582744 0.0 -0.00920066815145549 0.00014688390703915328 0.0
312 1 14.088941052732418 2.498070715198833 0.0 -0.05298725017810903 -0.04996576642969141 0.0
313 1 6.869812913729053 5.49873459712734 0.0 0.0011191278071211053 0.17744712145800154 0.0
314 2 12.446617581027827 2.1611681823329496 0.0 0.02681557035406064 -0.02290718482867328 0.0
315 2 8.648618228753095 14.28690882414681 0.0 0.03001943628903347 -0.021764586800772177 0.0
316 1 19.18674491207576 2.303904318825254 0.0 0.008178884859966078 -0.04449495705580601 0.0
317 2 10.338015504150444 6.009790097976202 0.0 0.05088368672490216 -0.015312095409899164 0.0
318 2 9.168384496834902 11.118287572970797 0.0 -0.014638784685087477 -0.03210981100441685 0.0
319 1 10.501835513207102 9.5426670387706 0.0 0.1115292306317545 0.019195134221332184 0.0
320 2 2.4753783390124595 10.704579415699335 0.0 -0.021930485814730574 -0.055712786745793386 0.0
321 1 0.1642109904333963 18.403363511015087 0.0 0.13364759050307712 0.04419079531566468 0.0
322 1 19.55639324708175 5.613976784758081 0.0 -0.029548092869273568 -0.08630226168156716 0.0
323 1 19.119268335657306 10.269275969149824 0.0 0.07659062752567282 -0.0198831566556799 0.0