ITEM: TIMESTEP
0
ITEM: NUMBER OF ATOMS
400
ITEM: BOX BOUNDS xy xz yz pp pp pp
0.0 19.7609 0.0
0.0 19.7609 0.0
0.0 10.0 0.0
ITEM: ATOMS id type x y z vx vy vz
1 1 19.247563988455344 19.352391162546603 0.0 0.03764238944962002 -0.10854014005231227 0.0
2 2 6.548388651506523 8.502963423102692 0.0 -0.03282031350993586 -0.02621766863680228 0.0
3 1 16.99141670142863 16.334306377573423 0.0 0.05952785459866391 -0.00507016223155186 0.0
4 1 4.182387868191508 2.8972198145015455 0.0 0.1239972065729107 -0.09425197702570812 0.0
5 1 10.656950641570184 17.762076277728198 0.0 -0.018107442031650052 -0.07766960041778492 0.0
6 2 4.804244701090028 17.726496378698982 0.0 0.01199847337124425 -0.001033851284344627 0.0
7 2 3.1012604307414695 6.470863242349026 0.0 -0.0014596202003749274 -0.048906713389104614 0.0
8 1 15.55060258888144 6.852096919620428 0.0 -0.007555967295874522 -0.06906611803583497 0.0
9 2 2.8756360761784303 19.278263797481408 0.0 0.05070273430111266 0.048819955233398604 0.0
10 1 19.359653908753113 17.999282887323126 0.0 -0.0331253199946537 0.0008707168953630235 0.0
11 2 7.837108939160333 0.9740297706046025 0.0 -0.02642081730318925 -0.01666161170085176 0.0
12 1 9.47953552990377 6.112139946449517 0.0 0.0217392480373392 0.10893223543711496 0.0
13 2 5.368522775338299 9.034507735411557 0.0 -0.055916851865134176 0.01067859323485467 0.0
14 2 14.191260213589365 8.822946493610795 0.0 0.03001901473061399 -0.0025494562129145634 0.0
15 2 8.748886157489444 8.546293487940865 0.0 0.09247894757415619 -0.022556628377452488 0.0
16 1 17.988691911848495 18.028697624211127 0.0 -0.054479450566283935 0.023310598673540177 0.0
17 1 9.674102514819221 10.31108053593047 0.0 0.04151661214473311 -0.03284994342426086 0.0
18 2 0.4742730562394034 18.757922174645152 0.0 0.021415539727389257 -0.056964287119353404 0.0
19 1 16.514465981934986 3.8696588175553512 0.0 -0.23769115390614337 0.03340619548843309 0.0
20 1 11.426372125004287 1.7782497956042767 0.0 -0.07941001293533542 0.07672079938078598 0.0
21 1 4.085701034675313 0.8285160006141907 0.0 -0.04723023851577207 0.03939326782878505 0.0
22 2 2.900694224139475 11.162843031868972 0.0 -0.056451105310961314 0.018856759572276987 0.0
23 1 6.73043836262121 1.1297494065472256 0.0 0.00029565801950638324 0.00651447305687172 0.0
24 1 17.548457941501148 16.744376084945703 0.0 0.07021778680555912 -0.0032458893592142834 0.0
25 1 10.47983915277768 6.807620278552589 0.0 -0.011508172367894361 -0.07121435710730405 0.0
26 1 7.047069259758108 18.211188275246897 0.0 0.08952887450350261 -0.08547504692679968 0.0
27 1 1.6650326455010216 16.78814164772425 0.0 0.1865962600082544 0.03005329001159066 0.0
28 1 7.33136036216909 1.9634996070907247 0.0 -0.05027301207200171 0.1475329987862368 0.0
29 2 6.899251893372055 13.024587562134858 0.0 -0.04495808911445388 -0.024811445418281734 0.0
30 1 18.175192738832312 10.755335586048231 0.0 0.05060847692273751 -0.036802629148502464 0.0
31 1 18.30229619552941 3.510769700797307 0.0 -0.01717515420349271 0.02415300864362067 0.0
32 2 16.555521131526234 8.208302322404327 0.0 -0.18392049557600212 0.05221403432968766 0.0
33 1 15.098021869082476 12.44993516060645 0.0 0.03325935297610096 -0.09163407876808922 0.0
34 1 0.7365985831591214 9.363293486730976 0.0 0.05755089577106068 0.03362237500293492 0.0
35 1 19.56543792046127 3.78767441275457 0.0 0.024586395216484955 -0.08325832206205701 0.0
36 2 2.3711914264925733 0.6275233690641485 0.0 0.028004309424922536 0.040275595360325 0.0
37 1 4.957464742982407 7.987677630772519 0.0 0.04610409611655682 -0.04296862039379324 0.0
38 2 2.6777896526189724 4.18458907021078 0.0 -0.023419639354073214 0.026477556289809766 0.0
39 2 15.599641775692502 13.748942489528302 0.0 0.01854038527313775 0.01634444054734728 0.0
40 1 12.282291677741702 1.6958254038319236 0.0 0.12080969923778587 -0.06721101837142926 0.0
41 2 18.93573158902531 1.2928739340283135 0.0 0.06770972381340627 0.053052373996400094 0.0
42 1 0.24895869598906456 4.3049736604400985 0.0 0.10045748835734804 -0.07770963992279978 0.0
43 1 17.274031754360493 13.056563289880291 0.0 0.006345444079502362 0.0006400686540417137 0.0
44 2 0.19576060722068545 7.790282455485309 0.0 -0.015155703485618418 -0.05929795186898267 0.0
45 1 18.104162722420146 2.837376021394497 0.0 -0.06441604781709034 0.06141709642183453 0.0
46 1 8.561812907570152 19.68069438256131 0.0 0.01433352829292065 -0.03198213097032906 0.0
47 2 19.180567256124423 2.7751154608001367 0.0 -0.05639476813991141 0.09082038748117545 0.0
48 2 14.650249424679373 19.309649727712095 0.0 -0.013727490920129044 0.0188350160680977 0.0
49 1 17.0943703093417 5.958087548452009 0.0 0.08812208793249113 0.07302844334587354 0.0
50 2 19.26172411350162 14.15070125885572 0.0 0.04694428794023886 -0.08915463566166923 0.0
51 1 6.575760403301552 0.47275471464746144 0.0 -0.14380520200331048 0.13691083575280452 0.0
52 2 1.262176134364727 1.1590428589394979 0.0 0.08623038659552587 0.03186355736729789 0.0
53 2 2.1690121981378883 5.328563732928013 0.0 -0.005170526733995245 0.0350146559997476 0.0
54 1 10.7702005600932 10.756838464074134 0.0 -0.013986887630011354 0.003545167321143558 0.0
55 1 6.06902734696488 13.74106171452068 0.0 0.022668845015985966 0.03352725673881302 0.0
56 1 7.210314025685088 19.23234201792577 0.0 0.06931472561525233 -0.03751198670301341 0.0
57 1 18.741006713218013 16.077498544618617 0.0 0.08676620987788149 -0.004862528235008341 0.0
58 2 13.575307298431017 14.407146133460943 0.0 0.02297323971756102 -0.036509004680997034 0.0
59 2 4.709380150780832 4.836364720860721 0.0 -0.028753175494656134 -0.12715698027819589 0.0
60 1 18.625206485098065 4.51917693412898 0.0 0.003209834145063779 -0.01900504307545316 0.0
61 2 0.44610014174548 11.136290315329656 0.0 0.0031940993018448995 -0.060534025223063594 0.0
62 1 11.6237512404233 2.9166106028542425 0.0 -0.03310675583159133 -0.018496596353742862 0.0
63 1 5.362051356083304 16.412872237185447 0.0 0.12781234914350725 -0.054650329243292904 0.0
64 2 15.161137941605467 17.18747777727728 0.0 -0.022860216518309544 -0.030453769542763322 0.0
65 1 1.521068018375766 17.434871254028906 0.0 -0.14466089253079345 -0.12765760499603163 0.0
66 2 3.8881979026698064 3.9429232856876726 0.0 -0.02598435310441667 -0.05354772886354548 0.0
67 1 3.772009610600544 0.19960042511763756 0.0 0.011795073282760367 0.03402168998608648 0.0
68 2 6.529169136756325 7.224494877670435 0.0 -0.042687808936531506 0.06979157515994627 0.0
69 2 5.860344940457246 15.369024807559963 0.0 -0.06851010273282941 -0.05477678236171674 0.0
70 1 10.847396667384903 17.105085937574017 0.0 -0.09639966359391085 0.04411390466860108 0.0
71 1 12.46828608432395 6.579365523499263 0.0 0.026735179637422137 -0.05271710149857969 0.0
72 1 7.810427943145504 19.62669010675587 0.0 -0.12279013424660937 0.012698045472421808 0.0
73 1 11.04027074147467 6.39756609182631 0.0 -0.07185612476265237 -0.08502528582664666 0.0
74 1 8.363106080376989 12.178371011094097 0.0 -0.01605358840960663 0.002335404680752061 0.0
75 2 13.740858878545408 3.82712283092836 0.0 -0.0366656347313642 0.020600393128695823 0.0
76 1 6.559993425140689 17.597026130574406 0.0 -0.14993940426636856 -0.06662919190658918 0.0
77 1 16.627517456028116 18.40017819663117 0.0 -0.1309489885465323 -0.08097160345640664 0.0
78 2 13.756813446634133 15.656925589868166 0.0 -0.017136723665915916 -0.0962557547688915 0.0
79 1 11.441595870080354 5.83722798000789 0.0 0.07663525568734805 -0.11313200497379368 0.0
80 2 13.848994432186783 10.054889675773484 0.0 -0.029586605909731025 -0.0741355442909478 0.0
81 1 10.74692994605119 1.8218492472054704 0.0 -0.2330232843475461 0.08082078221914334 0.0
82 2 1.6777680538875275 10.824489526861857 0.0 -0.03262189972748504 0.04092099797382947 0.0
83 1 16.00173860738498 0.445294395164915 0.0 0.07126600415038692 -0.014300624160921534 0.0
84 2 3.7323720975221915 1.8648565938486055 0.0 -0.03636896843814084 -0.0881413418654014 0.0
85 1 1.2595914406413202 8.107605605500707 0.0 0.019647012694356064 -0.004761079292603909 0.0
86 1 10.7764206589388 5.799166575987161 0.0 0.05000096689247862 -0.09690556334042288 0.0
87 1 18.69020987581307 18.192566251650515 0.0 -0.13584800253851345 -0.052238564499213956 0.0
88 2 8.913883755141278 17.5148476578498 0.0 0.02893831502185909 0.05661213386677279 0.0
89 1 6.896035473113888 2.513181929610933 0.0 0.05541618109739617 0.0017116471168970601 0.0
90 2 19.11613924210315 6.661998497681492 0.0 0.16052024800739242 0.15730997605046787 0.0
91 2 5.5655598971363265 18.846102372660074 0.0 -0.0030889769688800437 0.010771440041253105 0.0
92 1 3.1902783895496176 10.066356402674716 0.0 0.0033492458812459536 -0.08526776403813824 0.0
93 1 12.032532042831084 7.066960379082297 0.0 -0.030242679908949868 0.02217119036538577 0.0
94 1 1.1817823784979915 9.880787154476037 0.0 -0.024639401742535066 -0.058771084080772494 0.0
95 2 4.0374287681526635 12.26190264427757 0.0 0.027912019743453087 0.04047702690865807 0.0
96 2 13.910008635549836 2.5564629800517533 0.0 0.004273071660710261 -0.06291720989260072 0.0
97 1 11.114263647712106 5.212399194602933 0.0 -0.09057560192126193 0.03697044446288257 0.0
98 2 12.348989961772606 14.079978723407368 0.0 -0.028346062945126874 0.038963546772979925 0.0
99 1 2.9530382452734463 14.973612063912592 0.0 0.053836631237274106 0.1354913755655706 0.0
100 1 0.07172801917804392 9.532162770350753 0.0 0.0894821740844724 -0.0182835766049031 0.0
101 1 17.54151811925059 7.759596262451176 0.0 0.06380401052618667 -0.13395263354322026 0.0
102 1 8.684805142470074 13.159346609646214 0.0 -0.0839197357981723 0.04710455397617341 0.0
103 1 6.573970313440722 19.485653992132722 0.0 0.07054895242994293 -0.02582997036656804 0.0
104 2 8.073807229103485 18.55216528424989 0.0 -0.06223419785869502 -0.05613747735644118 0.0
105 1 17.822985765175517 11.32265445249803 0.0 0.009269367938232796 -0.06263962032215838 0.0
106 1 2.7557007583510944 9.48969948279985 0.0 0.09570752112485818 0.11742388484372779 0.0
107 1 0.9485386929139492 8.705545294654103 0.0 -0.09876890994913524 -0.0792197596125864 0.0
108 2 18.635040127551573 7.826435065447417 0.0 0.014642033340855553 -0.08170131103726362 0.0
109 1 10.75415561683266 8.64861557870869 0.0 -0.03277301596645867 -0.03912378034236687 0.0
110 2 12.388757309311435 0.3480739080151418 0.0 -0.00012937627195954134 0.005898721794485322 0.0
111 1 10.316090127868788 11.466097373716789 0.0 -0.10880864311556926 0.10042393725236336 0.0
112 1 3.803193364829729 17.214877590879492 0.0 -0.00634880167217551 0.0995025009276977 0.0
113 1 11.095347298038737 1.1697524520758753 0.0 0.0662367361502779 -0.006540640638569524 0.0
114 1 3.45756433170585 15.421720140232914 0.0 -0.02891664053966625 -0.07031909934805582 0.0
115 1 0.20197856067408715 17.68318830008067 0.0 -0.11707435281252072 0.12479271951319362 0.0
116 2 0.2832490409334869 1.8793594730491763 0.0 -0.060442295535738225 -0.07689335824629995 0.0
117 2 5.18333769015078 11.598717961616003 0.0 -0.09204530149797564 0.030652735560258142 0.0
118 1 10.528488973955353 2.4997544882454856 0.0 -0.07981246535724106 0.07684621270288175 0.0
119 1 19.148158798769813 18.670187740252114 0.0 0.014449374435881266 -0.04399081753617 0.0
120 2 12.705331935018465 3.008507974212676 0.0 0.028751176204661756 0.0404580936713429 0.0
121 2 13.769212749525558 5.098645237176684 0.0 0.04990631522624201 0.005665290184996319 0.0
122 1 0.24739246650660068 8.880426445825055 0.0 0.11012393480345922 -0.10381355775000434 0.0
123 2 6.801366289726058 14.548597822855458 0.0 -0.0375587653158722 0.03524042796553881 0.0
124 2 2.4146793909334714 1.8763625723983859 0.0 0.027256188922527017 0.04264322812550495 0.0
125 2 4.088901515651382 10.792986413937037 0.0 -0.028139101966756466 0.03421938454292775 0.0
126 2 3.2692951455314936 13.326213679470994 0.0 -0.12411227249863993 -0.04048125611489819 0.0
127 2 19.58106099742778 15.370543674742908 0.0 0.041742368001671325 -0.011550506225431094 0.0
128 2 6.379085613953947 3.523746939006556 0.0 -0.0388613066376032 0.006658861522640349 0.0
129 2 14.314608565138313 18.1338218049802 0.0 0.017608260230473318 0.11840822573576569 0.0
130 1 17.644889628815072 3.309141992751043 0.0 -0.11591424363227144 0.01445596606479143 0.0
131 1 0.992657773388918 17.020540052086357 0.0 0.08665784149660177 -0.04174439463170485 0.0
132 1 11.638605291979635 4.802170563910925 0.0 0.002151470660122439 -0.03969482888179707 0.0
133 2 3.448992788758666 5.199166970444342 0.0 0.002422964087460582 -0.03967368579428831 0.0
134 2 17.878547347474118 6.721918807952622 0.0 0.06165609074714985 0.02489967956588692 0.0
135 2 9.03595015293141 1.712933201915362 0.0 0.03498148410847219 -0.033012621213810295 0.0
136 1 19.30399181141626 4.389554588368532 0.0 -0.03029503841982731 0.05525788967733039 0.0
137 2 12.60826922135264 4.281666236740216 0.0 -0.07352271078811705 0.009744495043353221 0.0
138 1 10.306751244707407 18.352559925709524 0.0 -0.0854918277836933 -0.03963964167871121 0.0
139 1 13.540968901236425 18.996283585716817 0.0 0.01311191645860703 0.08426273991577563 0.0
140 2 1.801743856546471 18.4795983831056 0.0 -0.06260392490009706 -0.0722079230054127 0.0
141 2 18.078124540769352 5.479287403083388 0.0 -0.020012335175735044 0.05435508933721947 0.0
142 2 7.626987401324888 3.6735386729672848 0.0 0.01406147515181186 0.01548501737158282 0.0
143 1 18.269276049048784 0.3981195151442707 0.0 -0.006694933388412877 -0.06349135908994469 0.0
144 1 19.188608269940627 9.336462416355495 0.0 0.024795101039801433 -0.05008739662831133 0.0
145 1 10.338782483950302 10.220386366011942 0.0 -0.016603378607483874 -0.0454817365169289 0.0
146 2 9.296815942689094 18.73351255875213 0.0 -0.0962807127935185 -0.04725962529209822 0.0
147 2 18.0612003671916 13.810456880160654 0.0 0.09083793038550612 0.06000505650284134 0.0
148 2 11.148523007847036 13.80952323304204 0.0 -0.01722894277745589 -0.21815712390164066 0.0
149 2 7.827870762358357 13.853734513680998 0.0 -0.051246195137497744 -0.004701668497601713 0.0
150 2 4.346699284154329 6.083965506033314 0.0 0.024363443464121188 -0.09492359790441078 0.0
151 2 13.514116379632332 6.328954438082637 0.0 0.051934272095645696 0.11890355393648462 0.0
152 1 11.160922478529338 0.4635917262515327 0.0 0.05709692867728066 -0.06991188970256973 0.0
153 2 7.665460695282255 7.896930554479189 0.0 -0.02364832545132755 -0.03301849691817394 0.0
154 2 1.845102262216182 3.270603661589057 0.0 -0.117249498937724 0.03280751290795588 0.0
155 1 11.440667193760387 19.589676449290334 0.0 -0.014737848986038605 0.06407376267480591 0.0
156 1 11.770952960732712 1.2184026669996149 0.0 0.03367734016678448 0.059630408140706165 0.0
157 2 9.51822482743371 3.8790610051833245 0.0 -0.014676552987382765 -0.012441724689770133 0.0
158 2 9.919732049831449 7.873812855784391 0.0 0.021876916755964208 -0.07088682536816643 0.0
159 1 16.37282431906428 19.136275789826335 0.0 0.20799971754085503 0.0406219231261082 0.0
160 1 17.17679558955512 15.074966741535745 0.0 -0.001305958902440044 -0.05579327765035859 0.0
161 2 4.922235405452759 0.1347292937892174 0.0 -0.030599150017653065 -0.06728268045061739 0.0
162 1 19.348715341902146 8.68332368512038 0.0 0.13645178438302466 0.038743346899869066 0.0
163 2 9.959653431726089 13.486625518946767 0.0 0.027946992696610932 0.01960347122800508 0.0
164 1 17.50956559002878 10.662967120147515 0.0 -0.02669070301553043 0.08583826737327184 0.0
165 2 4.009616434524526 7.390360203896544 0.0 -0.05390695828579475 -0.008064389541280947 0.0
166 1 15.952939154215574 1.1493903889415225 0.0 0.04723575159562184 -0.11235040968961288 0.0
167 2 1.3574389935124622 19.646283894273424 0.0 0.012937229616431626 0.02256749416995891 0.0
168 1 17.299390373441742 12.41240632171587 0.0 0.006736677675693016 0.0061357401358668046 0.0
169 1 12.847153624816247 12.138861627036746 0.0 -0.11567502497960752 -0.07045691946115255 0.0
170 1 7.581525596795065 2.6001232816711233 0.0 -0.09293021310334944 0.09033625296115579 0.0
171 1 10.942521504421299 9.347412985819748 0.0 -0.030743196514831518 0.13760286539504477 0.0
172 1 12.668261534978036 16.969976550162553 0.0 0.03697507299616079 0.15990381230332443 0.0
173 2 18.61325750855427 17.143632887430925 0.0 0.0247693724575732 -0.00783928436200693 0.0
174 1 4.673029035350149 2.460062866347378 0.0 0.033785315404796026 -0.0068572181074458465 0.0
175 2 10.006308708217079 5.071545296184476 0.0 0.015551273206239344 -0.03906262174386344 0.0
176 2 1.8590957847388612 14.921194309404072 0.0 0.06972994568835306 0.06326507093087529 0.0
177 1 4.490650274027039 18.84411824345552 0.0 -0.07469593811585257 0.04559135488991595 0.0
178 1 18.25484869393648 2.192988789887903 0.0 0.013633052502844778 -0.04202723804131888 0.0
179 2 17.08956711969779 0.21194201043560779 0.0 0.01774462108213748 0.05368914494922207 0.0
180 2 17.611109617611618 8.915791319894325 0.0 0.005307981020350477 0.0967840520971801 0.0
181 1 16.85191308627497 15.658967888747206 0.0 0.12165253462625177 0.0728239152355826 0.0
182 2 1.0355940994368482 15.900177476365407 0.0 0.06041206692231926 -0.013330148239832652 0.0
183 1 0.0936064599879587 12.184785420410867 0.0 -0.10379708162837063 0.053062540520033175 0.0
184 1 18.05741763918575 10.080718779254443 0.0 0.01190852406123969 -0.10650322620920728 0.0
185 1 18.05481049125466 16.19503800023837 0.0 0.0031494734503093795 -0.013372250237939884 0.0
186 1 8.303660087356594 11.499839949854813 0.0 -0.07933145747325435 -0.018513550547954043 0.0
187 1 11.751698608306466 3.585724919463855 0.0 0.03249674994853516 -0.0901747641612317 0.0
188 1 13.941522826434577 7.7413183263713465 0.0 0.06320994828865714 -0.08446011978644437 0.0
189 2 18.96555260023549 12.87676150693723 0.0 0.08952693639727403 0.07458721313620117 0.0
190 1 10.21380370680695 6.172249336866685 0.0 -0.011357360782689672 -0.0220566707223045 0.0
191 2 14.765981201005005 14.866666172003347 0.0 0.03670410814364973 0.08561666235815345 0.0
192 2 14.904741950721471 3.42570798822195 0.0 -0.043965323909936606 -0.07531702078565261 0.0
193 1 16.89901580219301 5.320672263853194 0.0 0.12984166879526235 -0.03087755544104608 0.0
194 1 5.90426160491409 17.741113065960292 0.0 -0.16510513795017331 0.14339931520977187 0.0
195 2 5.260512697657447 10.29073899463945 0.0 -0.026364262430610817 -0.03984745397958276 0.0
196 1 15.767681074935359 19.565530995142343 0.0 -0.0022543141199155422 0.08255120270552316 0.0
197 1 11.009964974139352 8.012097944395219 0.0 -0.11566602711682256 -0.0049731856830168225 0.0
198 2 15.083149389137294 2.008484509865028 0.0 0.025014023335494625 0.021574666023213403 0.0
199 2 12.6417712685655 9.689120609312424 0.0 0.0201347260841019 0.054860836364158845 0.0
200 1 14.615577176893765 7.785281769193724 0.0 -0.05554005102474253 -0.03989766624259206 0.0
201 2 13.99262845948077 12.161502812996522 0.0 -0.03785414621152725 -0.032565191536480104 0.0
202 2 5.006539611757807 1.4108428697360684 0.0 -0.007212259411542478 0.017654907816750578 0.0
203 2 11.960844968244537 12.822412697607241 0.0 0.007609351838790421 0.16864677141089598 0.0
204 1 8.494800457117984 4.331530024939678 0.0 0.0022226742845755675 -0.07215054885669998 0.0
205 2 8.66506636766127 2.946768264727517 0.0 -0.08373677805011062 -0.017076319971647175 0.0
206 1 5.910640220723155 0.7511167450667977 0.0 0.06773155025823947 0.0010864711946170222 0.0
207 1 7.355389115721825 16.140628133945008 0.0 -0.0013290780623410974 0.00801754189254056 0.0
208 2 0.8767947256076033 5.2455613102398555 0.0 -0.06161181469073177 -0.007772614690625591 0.0
209 1 6.3944628969495145 18.21103041066809 0.0 0.032905724483606784 0.04358613961929938 0.0
210 1 8.921349737247784 13.821351362638612 0.0 0.023043957041582082 -0.01499359160061584 0.0
211 1 16.87957439113923 10.422921509293403 0.0 -0.046499245372961205 -0.07181068506801982 0.0
212 1 15.463798506614307 11.826157304807296 0.0 0.13032664195056598 0.012206263612880436 0.0
213 2 17.1195389183347 2.3332160868612117 0.0 -0.013371965123875031 0.038555948308894424 0.0
214 1 1.6635531559030912 8.631955471409334 0.0 0.09870387292245575 -0.020610829626127005 0.0
215 1 9.376761246442367 14.374293148286386 0.0 0.13166850087718684 0.059016461477054395 0.0
216 1 1.5979467036942998 4.373827557439444 0.0 -0.06777570018277522 -0.13998675669142602 0.0
217 1 2.767122947100483 14.305749864933999 0.0 0.22733882649395357 0.0026922171513653506 0.0
218 1 13.382758360078753 7.391776873198282 0.0 0.016133997554951783 -0.04119092658536425 0.0
219 1 11.386496045233523 6.949208915624202 0.0 0.15301783735566815 0.045285123468861634 0.0
220 1 16.984293909277966 3.399633281775258 0.0 0.019327561946170902 -6.920356182544043e-5 0.0
221 2 18.11517300347498 19.0982359681553 0.0 -0.05567823736120575 0.025820424419310078 0.0
222 2 5.277951359080769 6.919135674584752 0.0 -0.03607576958945053 0.043487390550086644 0.0
223 1 5.745565915933903 17.053443020373482 0.0 0.059297673098373284 0.21244424186530037 0.0
224 1 6.692218949808944 18.814651929637563 0.0 0.17390477704502402 0.06072664385207325 0.0
225 1 3.3897529352471176 16.69145406836249 0.0 -0.04678007999083844 0.07703076690847 0.0
226 1 8.93778027040113 4.8285804816040026 0.0 0.07617716984773527 -0.027391429688030065 0.0
227 1 17.37220003852957 9.981797657423684 0.0 0.039130518292825676 -0.0596671124175567 0.0
228 1 1.2388138985510264 7.428991349813467 0.0 -0.004328725362129554 -0.015329355176599972 0.0
229 2 12.38890739496684 18.89207812554783 0.0 -0.024240721247769943 0.011265472941435149 0.0
230 1 17.891955628920513 12.708848462853489 0.0 0.019313445019585183 0.025211031219391902 0.0
231 1 9.802327959237598 6.714310004717266 0.0 0.09335605489503636 -0.013510234511498636 0.0
232 2 10.505597030451042 16.055443774819263 0.0 -0.019627079764919585 -0.05294425224164666 0.0
233 2 12.511017794849662 15.320019312449826 0.0 0.007896210228692194 0.029915985105598102 0.0
234 1 3.4288297469199738 0.7845895750223666 0.0 -0.04080576959094577 -0.045068961056125637 0.0
235 1 9.645966193991933 11.319711773242359 0.0 -0.061116875000448316 0.060586047056069646 0.0
236 1 9.755191274904211 2.6621727143670473 0.0 -0.02818176871275643 0.006015441057156574 0.0
237 2 16.225195231643056 12.657955993582007 0.0 -0.045348346440802184 0.02014342976574039 0.0
238 2 3.31733377979766 8.537760846219332 0.0 0.01305540988963604 -0.06488517359884687 0.0
239 1 5.998997700299621 0.08386319094161807 0.0 0.07502142864512382 0.19865888678208699 0.0
240 1 7.145603546258587 0.12845958591842127 0.0 0.04848858216053077 -0.004364510213392954 0.0
241 1 14.771120991451761 16.110172558829355 0.0 -0.1416326875955728 -0.03748396946957914 0.0
242 2 1.872778042330761 13.577551105563069 0.0 -0.009237348515511301 0.07738698256573345 0.0
243 1 8.78085693526485 6.135697281439305 0.0 0.0008472825269953872 0.10984690419013227 0.0
244 2 3.576088853671258 18.251460848111844 0.0 -0.09651841278989916 0.009017745456581523 0.0
245 2 16.663304918030214 6.964925152837503 0.0 0.03306774655046357 0.06370490621465973 0.0
246 2 2.495240809235127 16.031002034533916 0.0 0.03175823522104292 0.014543829832474394 0.0
247 1 10.27725788378296 3.123877455852289 0.0 -0.04170452866136945 0.02791919522512856 0.0
248 2 8.431583132681265 16.35187856700393 0.0 -0.0010583182416074523 0.08941284666101612 0.0
249 2 13.885870564152185 16.90156177812294 0.0 -0.05920809221665054 -0.009405719200756375 0.0
250 2 7.794907480802781 6.637856108188187 0.0 -0.08950197605496868 0.034553955150526644 0.0
251 1 0.8923097752434053 17.701101902796665 0.0 0.04030077692768482 -0.11461588827510669 0.0
252 2 18.285957289621013 15.083579681975426 0.0 0.05789883551696099 -0.07132306843795107 0.0
253 1 16.164616318264784 1.7821475277268313 0.0 -0.054262909914146215 -0.05086221899208889 0.0
254 1 17.570477012754388 17.509994438244757 0.0 -0.05271083507058231 -0.019650949624752605 0.0
255 1 12.91353312549708 16.357677075359003 0.0 -0.02816171988447304 -0.1634865168375959 0.0
256 2 5.370259443040639 12.894996588638929 0.0 -0.05154396316134778 0.015160028508044009 0.0
257 1 6.7002847953595115 16.281302064478364 0.0 -0.04785265755006207 0.026107568330210128 0.0
258 2 5.620439714222032 5.640433512282043 0.0 -0.11373217676325448 0.10980781907488671 0.0
259 2 2.323014970429836 7.737812856949483 0.0 -0.016331844785369407 0.016026460209760764 0.0
260 2 6.328461085745723 11.027826767235245 0.0 0.050921745666932916 0.07685473193964966 0.0
261 2 14.952089217036647 0.7291854547689991 0.0 -0.003254591766778029 -0.0020607257977504644 0.0
262 1 17.312618775388117 18.21066391434457 0.0 0.014623103519517977 -0.020163244378111556 0.0
263 2 6.804472722897567 5.945002477956519 0.0 -0.0635893921417095 0.08567926763206782 0.0
264 2 8.85549127223912 7.258625956204614 0.0 0.044717973293854615 -0.14305006663625294 0.0
265 1 11.585760100457515 11.784821341561587 0.0 0.09059994163716725 -0.023558572746033363 0.0
266 2 13.188954156673706 13.167499641642303 0.0 0.009180102837730514 0.07303406421095292 0.0
267 2 7.590700818747985 9.224755476228255 0.0 0.07002737079298817 0.05199019339213431 0.0
268 1 15.74219299591392 5.6261066582912465 0.0 0.03637247847020557 -0.10428969051264514 0.0
269 2 13.128390213123247 17.935587752216197 0.0 -0.047367569179963716 -0.004424897609426704 0.0
270 2 7.2920611699982825 11.862366779807736 0.0 0.031037352218478424 0.04795078198095286 0.0
271 2 16.823768714768224 14.042681035121522 0.0 0.06876934660873497 0.026858613611240163 0.0
272 1 12.853834356597051 1.2966451008205733 0.0 -0.06489699344510168 0.016266564946605087 0.0
273 2 19.725859160237327 16.624079750614264 0.0 -0.010485567654003094 -0.05811749605670539 0.0
274 2 6.827195907754011 4.705456054218592 0.0 0.02126764913683201 -0.025647435661109164 0.0
275 1 10.958967571494538 3.028841516278327 0.0 -0.10754625519984137 0.06584286469212015 0.0
276 1 18.899716503827047 0.15952677860384698 0.0 -0.0018062930754854884 -0.0923760982792702 0.0
277 1 15.855713126862636 6.263416656188734 0.0 0.07158597820533806 -0.03592956703217017 0.0
278 2 2.6062709367898376 17.44380052301473 0.0 0.0472898947018575 -0.10446678622913994 0.0
279 1 12.730666306152747 7.205928782769525 0.0 -0.010349090967248245 -0.04712355951516339 0.0
280 2 16.00744905899511 14.982629166100805 0.0 0.09843128542826628 -0.01708889463805229 0.0
281 2 5.115872444827589 14.257895704258972 0.0 0.026315860150236927 0.09268591536926168 0.0
282 1 6.115143564897741 1.3850203839767337 0.0 0.018864307567802663 0.029707703271511485 0.0
283 2 2.4673139335050123 12.372096894486102 0.0 -0.02097496479967865 -0.04750357172838424 0.0
284 2 4.5932546966738474 15.555285606135477 0.0 -0.024603642008162712 0.03393120712737214 0.0
285 2 16.356260866972466 9.467198826306735 0.0 0.021680617159883113 -0.03523315667534297 0.0
286 2 9.842917749373715 9.231993933618453 0.0 0.08378551755209143 0.04346394440859402 0.0
287 1 0.5204259397642363 10.03162164153823 0.0 -0.03010693986941433 0.08196269518354789 0.0
288 1 18.514700413494353 9.558563036302536 0.0 0.09063964978491307 -0.0695341433767797 0.0
289 1 1.3578240931549366 2.262524322747087 0.0 -0.017764754110543603 0.049987858511976506 0.0
290 1 2.2808278138638145 8.966065654235418 0.0 -0.12018142886152215 0.07006078796414027 0.0
291 1 11.88562697870036 2.2697309165938817 0.0 -0.12717002860910498 0.06329494473582908 0.0
292 2 11.85034717756128 8.699739140186901 0.0 -0.017029897981018997 0.011882675713326667 0.0
293 1 2.024947895955359 9.63261313427583 0.0 -0.11540570882608428 -0.009870900185022697 0.0
294 1 11.528728364334413 9.720916774660024 0.0 0.011346278697277206 -0.06317903098766879 0.0
295 1 6.465882405942633 16.927632464885928 0.0 0.03675971286122075 -0.03404596286320959 0.0
296 1 4.732979980622981 16.65331159172519 0.0 -0.10575022990474732 -0.0660208916425759 0.0
297 1 3.6149627014846373 16.068776915721372 0.0 -0.08095970666183742 -0.05402123281751827 0.0
298 1 16.416698990890904 5.8399520074390905 0.0 0.04099938681006308 -0.09745805291246126 0.0
299 2 14.42465331797412 13.373305154104603 0.0 0.006824226268717395 0.0438827956112934 0.0
300 2 8.696643802405914 9.81441799529951 0.0 0.03836271228912683 -0.07228369019975406 0.0
301 2 10.782155243637984 4.111327573670143 0.0 0.028274429576140677 -0.047013290919804746 0.0
302 2 0.19092483480569694 0.4540912621999597 0.0 0.015038454207360111 0.06396363912178347 0.0
303 2 15.827641730069129 10.722196459621678 0.0 -0.011997990514042413 0.049361994598367015 0.0
304 2 13.175987634864512 11.095393823247408 0.0 -0.08538048222841904 -0.045179576229046475 0.0
305 2 15.549799118904286 18.423155961734757 0.0 0.052596599090027236 -0.07766886464678505 0.0
306 2 4.1249333944672 9.504234104476877 0.0 0.07641030303001105 0.0015913210427779246 0.0
307 2 19.19407398759319 10.410738524693372 0.0 0.017477123670446328 0.022621534134640083 0.0
308 1 9.222890316049183 10.793885464045212 0.0 0.06149233006675284 0.01164579321561174 0.0
309 2 11.747497334601732 16.372264659840038 0.0 -0.06916508230699446 0.0032753504126740427 0.0
310 1 8.044058098899708 12.780977059558593 0.0 -0.11958469657661723 -0.06875269944187232 0.0
311 2 11.889530638185791 10.726879399254036 0.0 -0.017803904847051164 0.11647970975902042 0.0
312 1 11.006819813335959 11.399181841857597 0.0 0.025756672070906896 0.08628560466485882 0.0
313 1 5.748539869021514 4.4851678221034685 0.0 0.06327132289016872 -0.12652252165315273 0.0
314 2 15.117996673910959 4.75075745565754 0.0 0.013246230161619391 -0.02140548731906134 0.0
315 2 12.494209202919581 5.504504790732446 0.0 0.02388817973343787 0.009850313431368763 0.0
316 1 8.006717505838562 2.0742682668383923 0.0 -0.0755900329046062 -0.011611138057864238 0.0
317 2 19.385969871526292 5.440361630378853 0.0 0.03773278085188704 -0.011948141715525969 0.0
318 2 1.2270800596939773 12.129852015907812 0.0 -0.032050112356641625 -0.005991409373475453 0.0
319 1 11.192803476359568 2.3969728900004377 0.0 0.03388007887802419 -0.08763118536976607 0.0
320 2 6.437551330299108 9.779236854205596 0.0 0.048926027225020735 0.026342622373500484 0.0
321 1 5.6321869600101735 7.949688237178803 0.0 -0.061118854588315855 -0.07959258594251269 0.0
322 1 10.070661605002401 17.095230643562534 0.0 -0.05779484407667296 0.04967466744738749 0.0
323 1 6.915899772357861 15.6347421177646 0.0 -0.0332027773133712 -0.10312515553924749 0.0