ITEM: TIMESTEP
0
ITEM: NUMBER OF ATOMS
400
ITEM: BOX BOUNDS xy xz yz pp pp pp
0.0 19.7609 0.0
0.0 19.7609 0.0
0.0 10.0 0.0
ITEM: ATOMS id type x y z vx vy vz
1 1 13.645005858237305 9.649272568652053 0.0 -0.013511729942256382 0.1196679905785917 0.0
2 2 16.81906727374854 5.754594625013029 0.0 0.006248526194329032 0.010994437359084555 0.0
3 1 18.13996630741714 3.944526539697538 0.0 -0.19443284337059558 -0.0968707311906002 0.0
4 1 5.0255123679242955 15.027535191209793 0.0 0.1357375543272119 0.03004912553101919 0.0
5 1 5.531956812641444 16.87942784224918 0.0 0.04679535840935187 0.05283010369096814 0.0
6 2 13.827303519853338 14.217286407614914 0.0 -0.016927684927524972 -0.050749276843442 0.0
7 2 3.971386733732006 7.80121490293673 0.0 0.00827825031821903 -0.057256188303573055 0.0
8 1 2.1392780629327026 12.334435477820307 0.0 -0.08761351027884151 -0.02162459519174133 0.0
9 2 6.042670562533196 8.889058285966248 0.0 0.05532391297452665 0.09247207149577998 0.0
10 1 16.691233287082337 11.555355836758837 0.0 0.09318860270962154 -0.029775911375128177 0.0
11 2 6.301562586354828 10.134775729589492 0.0 -0.009529393054955607 0.11548687022256555 0.0
12 1 0.48202369814341844 5.141929473344298 0.0 -0.09900811409345005 -0.042439975070120754 0.0
13 2 11.805644905454441 4.427027879862358 0.0 0.10702164979241881 -0.1028988441022152 0.0
14 2 6.95006542471724 1.2152894252365858 0.0 0.04078055186034469 0.041881859997425504 0.0
15 2 18.377298540612212 13.507776132517092 0.0 -0.11512986840725287 0.03883294688924502 0.0
16 1 15.560085951902558 1.7827160099674524 0.0 -0.15036215721141172 0.08512407205521838 0.0
17 1 17.74561904842461 5.161305058742808 0.0 0.007852854884519105 -0.12192110188281294 0.0
18 2 0.9942166788176721 11.17111480348625 0.0 0.018105405926835023 -0.0348871021037178 0.0
19 1 13.111772806171558 9.234936625814369 0.0 -0.002301765568549218 -0.0902130357741389 0.0
20 1 5.371723462564946 3.6069383390025638 0.0 0.0791217260324691 -0.02098460867719481 0.0
21 1 7.076202774262953 9.335746857538862 0.0 0.0724463307687598 -0.09967851188028685 0.0
22 2 2.911836449229409 5.28907074045101 0.0 -0.031788040924490266 0.005320147625196128 0.0
23 1 4.901188764547043 0.16629371869531978 0.0 -0.07994217704369085 -0.11178183666987773 0.0
24 1 11.472666721434564 11.329093189602975 0.0 0.07509182516865728 0.12306020919672346 0.0
25 1 6.719614674439275 4.0237927400664 0.0 -0.09765361782363818 0.06991338286247842 0.0
26 1 18.41990518523008 14.610959759937227 0.0 -0.03611887363453662 -0.0009277519704518437 0.0
27 1 3.7177910606482785 0.8409301663322988 0.0 -0.040989266098845595 -0.047337948769780064 0.0
28 1 8.942733824489537 4.247984758165689 0.0 -0.0866594630875366 0.025525039076752902 0.0
29 2 11.461807310377353 16.80046213401972 0.0 -0.015870152048427486 -0.03583241737010399 0.0
30 1 17.52860984934348 11.024583880394733 0.0 0.002468206718638793 0.015345110468970819 0.0
31 1 7.6422473027149165 3.1191319389719667 0.0 -0.1000404679467301 -0.06639880139926138 0.0
32 2 7.125679550154042 14.041013253087804 0.0 -0.07708674703369275 0.005123235132350947 0.0
33 1 1.9755665991567541 4.714326183660512 0.0 -0.005122890394513149 0.06080782942615984 0.0
34 1 6.7818257786218945 12.379816664723188 0.0 -0.02440562665193405 0.007332933181333131 0.0
35 1 7.3081661201528725 17.54176595658369 0.0 -0.18917627387744038 -0.03313660843359444 0.0
36 2 0.36983020969442315 9.012314253926277 0.0 -0.009839292335668106 0.020167011975695762 0.0
37 1 13.904640338566036 3.9238565277092246 0.0 0.06649654793388585 -0.05821723578393187 0.0
38 2 15.258044397651554 16.319268813192025 0.0 0.05310384781115535 -0.022871642605770827 0.0
39 2 19.20249097631588 0.9978121782850312 0.0 -0.06149737918610108 0.010970234042581097 0.0
40 1 15.002539820680944 11.071324407541814 0.0 -0.04126974367468135 0.03461079606415408 0.0
41 2 5.227599904714959 4.7053371756809454 0.0 0.10812202960597682 0.00374445386920841 0.0
42 1 17.342793852107217 11.646990817670797 0.0 0.055406579204591244 0.01770026925725387 0.0
43 1 16.551771446941043 2.7283194223448564 0.0 0.08387501143607812 0.07329668093370743 0.0
44 2 17.763021248274512 9.968477051993986 0.0 -0.014134963090291055 0.029647042082787387 0.0
45 1 9.278309412501821 6.155343994933452 0.0 -0.05431159272167684 -0.04545001922334932 0.0
46 1 8.006983960778365 17.607479324176968 0.0 0.014333041722262628 0.005256522169736028 0.0
47 2 16.74853527757343 1.375785123805109 0.0 0.0036042095555082394 0.025910104479875278 0.0
48 2 13.942978567961804 11.3225517992015 0.0 0.08935601239006696 -0.1109975779710013 0.0
49 1 2.341405638454072 15.318335094806962 0.0 0.02946945951851725 0.10339035089794857 0.0
50 2 14.007412700160831 8.57834673415521 0.0 -0.05514159398068135 -0.047109483895614486 0.0
51 1 13.70219996662897 16.66815258052597 0.0 -0.0021209862498476973 -0.11393848914970611 0.0
52 2 19.649407167778858 19.49405542989005 0.0 -0.05218668252449353 0.029416585491879945 0.0
53 2 6.553178903148541 7.763408855358242 0.0 0.03938423026779816 -0.030042837397697586 0.0
54 1 2.333116002917543 18.253038793694714 0.0 0.14742381806310356 -0.13846721782546467 0.0
55 1 0.7015929027659975 12.273742547002728 0.0 0.1574821291334175 0.01952432007827153 0.0
56 1 1.7962678285351696 14.97269363948846 0.0 -0.005058786185175511 -0.07346504634428698 0.0
57 1 17.88489974360584 8.902047436215462 0.0 0.06440941341589843 -0.0897788257971008 0.0
58 2 9.509545810629941 12.744127073837532 0.0 0.05099461244165695 0.0069251348247833105 0.0
59 2 5.567412665193112 5.904689883544099 0.0 -0.10624626377604214 0.007223379261741627 0.0
60 1 6.878729386893198 11.162330894274701 0.0 0.0013291759936069202 0.14056582084544397 0.0
61 2 10.93493843606403 8.520616483336045 0.0 0.043631378109277086 -0.003940408634874342 0.0
62 1 1.3983107582630574 12.244184720801432 0.0 0.10187582871496118 0.004072196216303718 0.0
63 1 16.166780789721347 9.43176064044295 0.0 -0.06255694508246246 0.010749580960348759 0.0
64 2 12.904173778143859 1.0761490754847796 0.0 0.051725846013346684 0.08223327190232904 0.0
65 1 9.316704436107866 5.122353119171385 0.0 -0.0458597662374081 -0.001906449238236679 0.0
66 2 11.293577746271792 19.20742925796928 0.0 0.04977933253307695 -0.01193334156493036 0.0
67 1 8.689505787036298 4.920725682637659 0.0 -0.10675384755064976 -0.028312633608621334 0.0
68 2 6.991012966185408 6.512501354247527 0.0 0.017543276074223752 -0.013411683893001803 0.0
69 2 8.168903435882996 9.110334222004921 0.0 -0.02973407094091917 -0.02691798164871931 0.0
70 1 1.6902139692994855 18.11986361329898 0.0 -0.08257926268820057 -0.012714789048565208 0.0
71 1 17.044521557648785 3.2268715226881426 0.0 -0.11073636808114082 0.016085960897614875 0.0
72 1 17.700592889496487 16.34931427297095 0.0 0.007669723758076519 -0.06731596680789734 0.0
73 1 2.270170500032935 6.9320053068077785 0.0 -0.038344784409780265 0.005885473584751552 0.0
74 1 8.143914316732225 15.821668410562536 0.0 -0.03611696869931626 -0.0019001341496274109 0.0
75 2 12.346365090794048 18.268453030630052 0.0 -0.008052700320361917 0.09238555854466247 0.0
76 1 11.09953762449675 7.3909203631109746 0.0 0.03981610441238168 -0.008272932513656102 0.0
77 1 6.025532750839901 3.9748652345961886 0.0 -0.07009312692431384 0.08332144762231614 0.0
78 2 3.9928505236757457 13.631436519132707 0.0 0.04795094788947907 -0.046820132922522475 0.0
79 1 17.748656921436204 15.676570315804415 0.0 0.0912816170290636 0.06231994803615529 0.0
80 2 0.6230890813610646 18.42345908343391 0.0 -0.023189845308045777 0.02981430057822989 0.0
81 1 9.97625999692417 4.999845282138794 0.0 0.03554315211238373 0.1504807977640863 0.0
82 2 10.948065244268866 5.43474492533467 0.0 -0.04321431519657567 -0.03655736666035059 0.0
83 1 1.7042800218501015 2.6341485925639447 0.0 -0.0536815679533325 0.023407122497833416 0.0
84 2 19.342383951932515 8.039992715325251 0.0 -0.029080295297256604 -0.026198822242016657 0.0
85 1 16.984830560616302 8.311713181647221 0.0 0.09894602140164721 0.004926870167042027 0.0
86 1 17.234528211815793 8.924108506346316 0.0 -0.05796838278135657 -0.05690885249264045 0.0
87 1 7.676787685082866 19.489137086217063 0.0 -0.023964127067605093 0.09368161082079438 0.0
88 2 2.430970060961125 9.458158302061262 0.0 -0.013578125631728733 0.0381138866847292 0.0
89 1 10.690693457073658 0.3656427947900564 0.0 0.021889696613080538 -0.06534406432592063 0.0
90 2 16.203208490429716 17.11157049731558 0.0 -0.016760316622978416 -0.10218142807202539 0.0
91 2 6.5043049231812535 5.073130025341763 0.0 0.04606259590601751 -0.015569813616774923 0.0
92 1 14.338369710015417 16.900211115793738 0.0 -0.1448683622206685 0.04430080611810379 0.0
93 1 8.868342348645921 3.5643869922226874 0.0 -0.009117134309171058 -0.10843568231331459 0.0
94 1 17.22368780584142 17.54265717314071 0.0 0.030993429406371596 -0.04113997189472012 0.0
95 2 3.6420464650802113 1.9695603512766073 0.0 0.038046228946026064 0.009871890700394891 0.0
96 2 5.250012108335155 7.67019887931544 0.0 0.040176191385837626 -0.012564863054189255 0.0
97 1 13.32726614292576 18.829525675746567 0.0 -0.003941824978477565 0.2376245050087492 0.0
98 2 3.6095993584619 9.1432504637506 0.0 -0.03865430758778922 0.06913062714717141 0.0
99 1 0.45699791654093125 0.6572092814650687 0.0 -0.10779329281210903 -0.03429952151360286 0.0
100 1 5.815332744649843 3.0818177771102717 0.0 -0.1293851380857322 -0.10566980624314266 0.0
101 1 5.111371125431804 13.771592030753817 0.0 -0.06908849629234556 0.03193490024411295 0.0
102 1 17.301487927433165 13.557817642245498 0.0 -0.034952350318829616 0.03504558409066749 0.0
103 1 14.988737297193245 9.91715749298775 0.0 -0.04452531751620588 -0.03481397597923845 0.0
104 2 10.469646015471417 2.7976392896299203 0.0 -0.02276154087876037 0.0038020725125737097 0.0
105 1 16.21648564282553 14.898852837376525 0.0 -0.05278748570938248 -0.14968922157419956 0.0
106 1 14.377990978892765 9.620499086779255 0.0 -0.0992042555971709 -0.008965010954462772 0.0
107 1 3.807466980152877 12.540883754987442 0.0 0.005107093131398505 -0.005811648185947064 0.0
108 2 12.06030267239291 2.013471310965669 0.0 -0.0357289498424584 0.016677981672406063 0.0
109 1 14.032868578334837 13.144764638290505 0.0 -0.06924527188408112 -0.028743058427982526 0.0
110 2 8.643021258099502 7.823254106103065 0.0 0.06919187042486567 -0.010360022037160986 0.0
111 1 14.50669586238651 12.695662065327918 0.0 0.0556527955088234 -0.13381176649288326 0.0
112 1 8.026593407940101 0.9661250621241193 0.0 -0.014301110004758198 0.10832413716492405 0.0
113 1 1.5445127517124866 1.4333887617058125 0.0 -0.09565884455387993 0.11061079461042476 0.0
114 1 18.12980284510686 4.6036784441680885 0.0 -0.07674622071497568 -0.045882337368924817 0.0
115 1 13.668635968494229 1.8276298721176234 0.0 0.02850823543038871 -0.1350704757307447 0.0
116 2 1.8357621385143106 5.818290538556358 0.0 0.03012262884250551 0.004409297191937529 0.0
117 2 3.0209626243439147 14.497978875664506 0.0 -0.12110222082802986 -0.0499909324126666 0.0
118 1 10.364514168844638 7.602174833429568 0.0 0.017871554471647684 -0.005305384263733105 0.0
119 1 3.2440468365686472 6.951537041125256 0.0 0.20572386917154376 0.05719486381707473 0.0
120 2 12.029975568325 9.076807613811756 0.0 0.04298864316560192 -0.1106084319977211 0.0
121 2 1.9163435911126354 13.901622005213477 0.0 -0.08922787268020835 -0.06380063487497922 0.0
122 1 18.970634694776667 15.702960457319596 0.0 -0.09276784778408396 -0.09605807330518966 0.0
123 2 11.429555961686466 14.901587600387066 0.0 0.007190530418851885 -0.005451041022982813 0.0
124 2 2.3423996418554713 17.15400082176834 0.0 0.03375896050362251 -0.0309413562850716 0.0
125 2 0.24302188398179994 3.475287449842965 0.0 0.08444942496857666 0.01859375267021479 0.0
126 2 17.327648147056244 14.657815103244292 0.0 0.09049039463948325 0.0120968835249039 0.0
127 2 19.747223598901844 2.245676170518217 0.0 0.00402782230679597 0.009306625359399502 0.0
128 2 14.45569257634268 18.816309124076216 0.0 -0.013061894314627594 0.047522264858032036 0.0
129 2 14.102348212526366 2.8339969209954674 0.0 -0.0272043053680005 -0.029028960069674946 0.0
130 1 3.8878000635743013 5.758471388068024 0.0 -0.044034273322487 0.09403305741759313 0.0
131 1 2.4647016517056017 12.915136385637929 0.0 0.026266573018641822 -0.11535180985331973 0.0
132 1 14.935991938229627 2.0499150505028485 0.0 0.11217736650036013 0.006334963248657214 0.0
133 2 12.510941912589988 19.54602344988053 0.0 -0.012173732512603515 -0.03885456101081233 0.0
134 2 9.977471089804945 19.239868697090667 0.0 -0.06068692522842507 0.02728781617371361 0.0
135 2 5.660222018166938 18.979047815162396 0.0 -0.03384409588592409 0.016019689440456078 0.0
136 1 0.3734897313959717 15.697413436082185 0.0 0.07685990487846911 0.05524236079729985 0.0
137 2 18.896764228137954 9.37652471399487 0.0 -0.054197887662397214 0.02855296268082194 0.0
138 1 14.015524619467532 1.1848162741817774 0.0 0.14581867650834868 -0.05799638959212954 0.0
139 1 4.673829045097509 3.7794950981742885 0.0 0.049533670630844795 -0.09279180294032603 0.0
140 2 16.98906199816237 19.74705511420388 0.0 0.005157348011626556 0.1543764318756257 0.0
141 2 19.29866396887371 6.618377888174915 0.0 -0.06489184591492538 0.06967473927687995 0.0
142 2 19.008881920749467 18.390296801027393 0.0 -0.03356145434167202 0.016652769198865974 0.0
143 1 7.667574259766475 0.393541253771199 0.0 0.007770498802379642 -0.004919999444765523 0.0
144 1 13.505695633439835 16.0224154408403 0.0 -0.053354643327022847 -0.03368172086358659 0.0
145 1 3.4390031079137633 17.076451986985088 0.0 0.008446969323947713 0.020264967094126375 0.0
146 2 3.2205369658327943 18.849845623474824 0.0 -0.05509290619271992 0.03041478787603696 0.0
147 2 3.0171603356044137 11.721820290457096 0.0 -0.017506887089940002 0.08906436254392876 0.0
148 2 1.158581643425484 19.57224642239649 0.0 -0.011391661798289729 -0.030949359013031173 0.0
149 2 15.091463570763098 17.71776219123916 0.0 0.050830657209046275 -0.007975453362854299 0.0
150 2 0.7915218912408383 13.384714957012788 0.0 -0.07324653854891454 -0.15203360356249998 0.0
151 2 18.605212419260706 10.858188351235311 0.0 0.012218014422171032 -0.01794674352435562 0.0
152 1 1.726361470503471 12.838112753973196 0.0 0.023111434366372644 -0.028500744879542402 0.0
153 2 10.332622417012496 6.522802498186734 0.0 0.13519567982026395 0.00791706693897811 0.0
154 2 15.55474093878112 5.456149498097639 0.0 0.04799705404196745 0.039655333917911186 0.0
155 1 7.128800405897585 12.95746645855156 0.0 0.13812418259098402 0.028034750798399375 0.0
156 1 14.794945194199697 0.12241388845049361 0.0 -0.08273689635996677 -0.035759394644278984 0.0
157 2 8.389573129273492 10.512574881383458 0.0 0.0040146640413613365 -0.047202922420713056 0.0
158 2 10.993258419937053 17.980333670643343 0.0 -0.06275772735175121 -0.022010575157297815 0.0
159 1 0.3966583269849187 7.3041850031621305 0.0 -0.02851541764617893 -0.10143490739228793 0.0
160 1 0.6667012839923827 4.478443503206123 0.0 -0.053447162110329335 0.03361538973056015 0.0
161 2 1.49561728967834 16.020492281801445 0.0 -0.16242641816671385 -0.037033903413418424 0.0
162 1 12.863881008383249 2.955565532507298 0.0 0.009027756733250028 0.01734556683383195 0.0
163 2 19.589763045945823 11.595635393978219 0.0 -0.041709095288280956 -0.03226683664607687 0.0
164 1 8.288725527319066 3.2105796599233756 0.0 0.01705299368200202 0.1264254996002758 0.0
165 2 9.42862415182616 1.9803826007729053 0.0 0.08678879165937345 0.07490466496777251 0.0
166 1 13.815246129590884 12.466276987910808 0.0 0.04582395861937368 0.007158294772263158 0.0
167 2 2.249479542854147 10.707392401331314 0.0 0.01957481855133559 0.046166631439161866 0.0
168 1 14.669171708961093 10.503034151375445 0.0 -0.20322228336828232 0.037699676946178345 0.0
169 1 4.976965999218259 13.105357807975889 0.0 -0.02390760176847201 -0.010263263638169805 0.0
170 1 4.48849197754668 12.636064375856463 0.0 -0.08274619952535042 0.06291907137572686 0.0
171 1 18.92184869426916 16.375851831790683 0.0 -0.05692387265802362 -0.06303531338312758 0.0
172 1 1.074818791117891 7.3472644259481985 0.0 0.16437951598614067 0.031048692857325734 0.0
173 2 3.962854561420031 4.625960005123512 0.0 0.050929913100235175 -0.015538578196207612 0.0
174 1 14.335304245544979 1.7708057561853552 0.0 0.01154118112611184 -0.10483815425790631 0.0
175 2 2.403857307231973 19.73121254758669 0.0 0.03191902498361099 0.08774455693228221 0.0
176 2 3.533936491038316 10.449380012908797 0.0 0.10279231208432935 -0.02469497501533714 0.0
177 1 7.68679459136709 16.9976773642462 0.0 -0.059833828226541964 -0.0041940541910417024 0.0
178 1 17.46862954551042 12.918613909540813 0.0 -0.00858407101045693 -0.055028987900057565 0.0
179 2 11.814535407587876 10.275650452079386 0.0 0.0077589817793090946 0.004649592535248893 0.0
180 2 15.863398169797291 6.655521660983015 0.0 0.08375234194454949 -0.06409174716072231 0.0
181 1 16.800408359980246 12.857000976798625 0.0 -0.1188691342510007 -0.06535013283898847 0.0
182 2 18.763232592440247 3.0549463682161395 0.0 -0.07202326982384176 0.007338113210993813 0.0
183 1 5.3303769990601 15.61333612323439 0.0 0.04127548104264786 0.07598987295096613 0.0
184 1 18.95861974195873 5.585265830154841 0.0 0.004093534336555124 0.041664755317982666 0.0
185 1 18.327033160593196 16.02693615741192 0.0 0.023185757174907038 0.024430705674885447 0.0
186 1 17.655641009345054 8.249598120108496 0.0 0.00577122761440791 0.10005049287457836 0.0
187 1 2.9459063140237385 2.8435347386318317 0.0 -0.041489574485660784 -0.08263261855489212 0.0
188 1 15.661953296494502 9.867846102693003 0.0 -0.0014542197367892664 0.02388328844373188 0.0
189 2 15.669199241380458 4.233353041484443 0.0 0.02643725696857506 0.020416811841668048 0.0
190 1 15.712240510456294 15.333260400500995 0.0 0.031614399471207366 0.035651767820661144 0.0
191 2 14.357991323777625 4.953603252596119 0.0 0.01736213526231996 -0.0796735598345951 0.0
192 2 15.370634710652922 3.0324591537870953 0.0 -0.010260533970184288 0.020590371995414147 0.0
193 1 4.022368479283882 3.553288813550746 0.0 -0.03302724022661039 0.026784489957565428 0.0
194 1 8.669464875708517 17.93990024298064 0.0 0.06449044495341505 -0.02163753487698037 0.0
195 2 11.722976237417727 13.6408687844104 0.0 -0.01984825889448075 -0.0442120340205259 0.0
196 1 12.620582016043928 3.6312457058065823 0.0 0.06307986910679719 0.12115876736294638 0.0
197 1 10.92511053793922 10.89129863547958 0.0 -0.16241080463619276 -0.09604883994350709 0.0
198 2 18.31003967233605 17.281641693307712 0.0 0.009443289283616685 0.016808452737243698 0.0
199 2 13.080057976419567 4.656819965156235 0.0 -0.0341789338054295 -0.10746322700165412 0.0
200 1 16.512578387789414 8.842124981650207 0.0 -0.054246404243446796 -0.01787027790047215 0.0
201 2 10.576921367064042 4.081660727024387 0.0 -0.05089581535499182 -0.1325040465207769 0.0
202 2 4.99310443350298 17.843852238042526 0.0 -0.055841872680211416 -0.035578898944723276 0.0
203 2 8.731340782607411 0.03465576608561872 0.0 -0.030698806551072374 -0.051284240586406814 0.0
204 1 16.78175845380791 18.034331808966154 0.0 -0.07283955245509371 -0.05550136143514949 0.0
205 2 6.072171043611996 13.242389715327699 0.0 -0.0018644465333539106 -0.045221975117771256 0.0
206 1 8.848782655268527 5.613459577392312 0.0 0.046394529465346245 -0.007846614039605734 0.0
207 1 8.080659941701935 18.28124940661501 0.0 -0.06505492675578443 0.03273534792956719 0.0
208 2 15.670970029058147 19.194025748533164 0.0 0.021970910317287148 0.037654272017226195 0.0
209 1 14.16743175895721 16.205640372176923 0.0 0.08977904278945677 0.0905542996977412 0.0
210 1 1.8936975682594754 11.738839812344699 0.0 -0.023197071133856398 -0.009751686325105752 0.0
211 1 13.20194816236579 12.150845711972451 0.0 0.027118550677237917 0.12308073606873383 0.0
212 1 1.9076850154539255 2.00245618246752 0.0 0.014856504605165497 0.020455622745612013 0.0
213 2 9.323087684024998 9.668556907522442 0.0 -0.020136154518369743 0.022001181379833964 0.0
214 1 7.285198534178466 10.616600977724119 0.0 -0.07815828487309825 -0.04557044935535577 0.0
215 1 19.63859045988506 5.523500412482053 0.0 -0.001678813466459377 -0.054248998359832226 0.0
216 1 15.667956961225123 11.093810713498085 0.0 -0.03780266651373489 0.13280444269723496 0.0
217 1 6.012090267711037 15.654686523504596 0.0 0.029623168329381853 -0.12195920384728917 0.0
218 1 15.567285924939574 14.670500492109205 0.0 -0.08565094238122511 -0.011380041831268844 0.0
219 1 7.189259013225667 11.798106970047641 0.0 0.039407620023841544 -0.12135871166138422 0.0
220 1 3.491058349371663 0.1847051199050627 0.0 0.006104535401114797 -0.05991987579992881 0.0
221 2 4.768456861664686 8.792996959638476 0.0 0.1079318802256559 -0.0646294595635113 0.0
222 2 10.727613853867425 1.5377545990312282 0.0 0.013796585031516968 0.05476455192507161 0.0
223 1 19.561230373520324 16.05728313856303 0.0 -0.050982263105001716 0.03156079076381217 0.0
224 1 6.401526694047168 3.4123096975377645 0.0 0.004866809752450385 -0.061366953821959135 0.0
225 1 8.142412353954407 13.633166118068864 0.0 -0.006272845514965823 -0.02542640932351094 0.0
226 1 2.5233438906565193 2.3017625147964633 0.0 -0.014877561503158847 0.08950878700277466 0.0
227 1 2.2897922062536806 2.9573895569578372 0.0 0.06452425845208187 -0.05567960621140029 0.0
228 1 13.381534434947609 10.302499942703546 0.0 0.0037784990093901083 0.04929844409242772 0.0
229 2 8.172638306155752 14.73060551021873 0.0 0.051841192370207734 0.032005875908152105 0.0
230 1 9.737919851101555 5.631275979526489 0.0 0.05036736388949788 -0.1363477721146399 0.0
231 1 7.796825287796903 13.024775125590223 0.0 0.05544320456290729 0.15182324090370997 0.0
232 2 1.2470492296801154 9.913409102688687 0.0 0.061230119176815735 -0.03309600633859514 0.0
233 2 7.858042168544507 4.205882357674647 0.0 0.022574394645965293 -0.04322275715724539 0.0
234 1 4.537308456893273 9.873625413131792 0.0 -0.044602455541494994 0.015755275778647014 0.0
235 1 9.271328847927133 18.410817638347158 0.0 0.09547011660486085 -0.06118375255824459 0.0
236 1 5.275890639451205 9.721367934017003 0.0 0.00394511922640902 0.07280805335182063 0.0
237 2 6.601703690887033 0.022924989812292552 0.0 0.01703585123675106 -0.015303366552079988 0.0
238 2 1.080017940729845 17.218117886707034 0.0 -0.04602014260138425 -0.04908915074953447 0.0
239 1 4.169318330834556 0.3053426154403051 0.0 -0.008630237061341544 0.03231453084330415 0.0
240 1 13.285883035440529 3.5639348898079195 0.0 0.06119907259678481 0.0326419480933626 0.0
241 1 9.88973354026186 18.107941108591156 0.0 0.01787414770488474 0.04676758725762012 0.0
242 2 3.074809124893318 16.070712689351016 0.0 0.03993367843904991 0.08362145573381925 0.0
243 1 11.122276148372395 12.728264017096128 0.0 -0.08175784070510636 0.1044417284959836 0.0
244 2 19.57986186407548 17.25246304924979 0.0 0.059190225276473635 0.008295319241534076 0.0
245 2 18.32246364148574 12.148397847941729 0.0 0.02450825840760928 -0.007636625347633669 0.0
246 2 12.42258481421999 6.890707020291902 0.0 -0.017029570425362763 0.034312075653367705 0.0
247 1 18.417595392834844 5.20181614426628 0.0 -0.08236927743352462 0.022216333930089652 0.0
248 2 4.251945049011305 11.551374528692257 0.0 0.03425012420297978 0.07020685789418639 0.0
249 2 5.197327584861698 10.791688178451068 0.0 0.07176842553061874 0.023394763234001994 0.0
250 2 2.7221529064555794 7.980392485338819 0.0 0.09771132641848645 -0.11319798478511203 0.0
251 1 12.861079647527927 9.887177721852462 0.0 -0.04229661850430992 0.08133217184548874 0.0
252 2 10.645335656839292 9.772468220876117 0.0 0.14319578340683373 0.01869847536399932 0.0
253 1 7.071748142978999 3.466406105017474 0.0 -0.09564557524647416 0.043488080912257386 0.0
254 1 4.803086725959614 14.393359165143936 0.0 0.05104566470398128 -0.014718896014860818 0.0
255 1 5.961191784282551 6.868891375517752 0.0 0.08040118655496999 0.04150006490211928 0.0
256 2 15.63550493377701 12.709400110727389 0.0 0.009963527508183174 0.007807034420969331 0.0
257 1 9.472826676293902 15.783925025925145 0.0 -0.12817855996382116 0.018820140146804935 0.0
258 2 0.7006619419404682 6.239131520629234 0.0 -0.04438599122018893 -0.04790330330611542 0.0
259 2 19.439674544282383 14.10643807014993 0.0 0.04085436818164909 0.03268624468711643 0.0
260 2 12.176842467816273 5.652988902342626 0.0 0.13243874218833346 0.0010865527115699145 0.0
261 2 7.085318289294771 15.379972855169429 0.0 -0.023374779751472605 -0.03325094758910429 0.0
262 1 1.8938889443835225 18.759045263503616 0.0 0.062268118613458705 -0.1054610254769399 0.0
263 2 10.44462341460041 13.561112328436392 0.0 -0.004932378338138823 -0.01735410133625389 0.0
264 2 4.519072455500657 16.41232548264377 0.0 0.03331030755166709 -0.06369233748273692 0.0
265 1 13.13633791339725 2.27274959127876 0.0 0.031066749220908407 -0.04524361306081331 0.0
266 2 17.027417590066374 4.3315903553916035 0.0 0.007366582093716935 -0.020177873183403302 0.0
267 2 6.835589261839964 2.417870917302998 0.0 -0.011183650563706998 -0.00470849203711483 0.0
268 1 7.158913137622597 8.672340326745601 0.0 -0.05015935554718428 0.0502490306276389 0.0
269 2 14.971924674358274 13.74839387002157 0.0 -0.005406708372229238 0.019722587077668698 0.0
270 2 19.446343347023376 12.817738555815616 0.0 0.07493488685629719 -0.006339018289480252 0.0
271 2 8.256927311837044 6.590442189084493 0.0 0.04903307264372025 -0.009536660917686283 0.0
272 1 18.65045966740056 1.9480099118336407 0.0 0.030762628771490438 0.016716764669314474 0.0
273 2 1.5085673330623297 3.7296048632490053 0.0 -0.08961076111681889 -0.042558735936698004 0.0
274 2 10.104771205306287 17.007057236458543 0.0 -0.06847488727364183 0.0033113817264669976 0.0
275 1 17.288776153466433 16.871922586528978 0.0 -0.03895424949028555 -0.03460847310586202 0.0
276 1 16.634301875833494 18.690817629547425 0.0 0.015486080066709866 0.0616063277220944 0.0
277 1 6.531290144758328 11.769559022016164 0.0 0.034543181375912134 -0.051171723086838775 0.0
278 2 16.261306369554696 13.807785336707191 0.0 0.015282616682434228 -0.002573147828966846 0.0
279 1 11.745162128218631 7.759174888676305 0.0 -0.10749227723082096 0.21891666989372818 0.0
280 2 12.686612553318833 11.153822277820312 0.0 -0.0220637260330321 -0.034907570227917815 0.0
281 2 8.773931076912492 16.78122898754832 0.0 0.01459129957267135 0.050384270815773145 0.0
282 1 14.058061258545283 10.213775060077708 0.0 -0.019735638749579554 0.01819935913664811 0.0
283 2 14.821877645288682 7.540506203466864 0.0 0.05451069201767307 0.08478789753569356 0.0
284 2 12.939167090805373 13.228667153841737 0.0 0.0323079866192765 0.0010450084938485032 0.0
285 2 8.077904262405529 2.0824749015363366 0.0 0.016285277009710938 -0.04456560863630513 0.0
286 2 16.009450653469386 7.889184983211511 0.0 0.06665561832436527 -0.013052456897122743 0.0
287 1 9.447783207615714 3.139943986932606 0.0 -0.06141019142225836 -0.027596376748899833 0.0
288 1 7.869089221179995 11.836669697875603 0.0 -0.17524496203313167 0.030054683011223084 0.0
289 1 19.573879049250323 15.30090860307711 0.0 -0.039394632314513796 -0.026445172416294856 0.0
290 1 1.2679543333584538 4.841783482645105 0.0 -0.16218179792548637 0.01570764377800705 0.0
291 1 8.673877195477498 1.1568384534646967 0.0 0.02147897289886493 -0.09796272349602168 0.0
292 2 10.583897175296068 15.883724520746352 0.0 0.0477063640440054 0.012163340098837253 0.0
293 1 2.918128433044596 13.418868815934026 0.0 -0.15719356979230625 0.05226793592355702 0.0
294 1 14.745316570750802 12.074106068883358 0.0 -0.07313249504768862 -0.07723564642859725 0.0
295 1 13.4639327973819 15.310583112089443 0.0 -0.08450144452282105 0.07944999524741327 0.0
296 1 3.18945519675275 12.81252894075189 0.0 -0.1711778664342774 -0.06615430914955682 0.0
297 1 3.584087602991981 3.0737712023473316 0.0 -0.04735268483806334 -0.07965841028575547 0.0
298 1 8.177163054583428 12.44800537472346 0.0 0.03133191559157059 0.0638205641121757 0.0
299 2 14.596243793158322 15.204705422555849 0.0 0.007482817010208894 -0.03150652522463509 0.0
300 2 18.018848112578493 6.214429868394369 0.0 -0.03615313195558235 -0.06989290357079003 0.0
301 2 11.713649176411876 0.7490873903559128 0.0 -0.08562540430520413 -0.007138365204313421 0.0
302 2 17.948640488838457 1.0582884149593608 0.0 0.0002727591767775799 0.09354831343996199 0.0
303 2 13.703627312302167 0.11524625110440465 0.0 0.06020348374308913 0.04285813361256293 0.0
304 2 16.55569441152449 10.49130145870401 0.0 -0.04680311055099473 -0.0321754821577201 0.0
305 2 5.490043958024529 12.097218751462618 0.0 0.03962130260363711 -0.024702133415488967 0.0
306 2 12.423830835953773 15.796217535489346 0.0 0.09901027720768109 -0.03556912228852246 0.0
307 2 7.741705799701728 5.458900816114352 0.0 0.023955025788320025 0.005316170723643744 0.0
308 1 7.420096106974369 9.938483807197207 0.0 0.0883610512821102 0.1558181950480107 0.0
309 2 4.495392032527998 6.662630492994997 0.0 -0.02790177179284483 0.1108492202538784 0.0
310 1 1.6790604819570845 0.7697907228042558 0.0 -0.010301490517940402 0.013678282589106458 0.0
311 2 18.39037219000462 19.629036104014464 0.0 -0.02986940607900817 0.0009180047303288654 0.0
312 1 8.795506719073675 15.688697826267704 0.0 -0.07005820457522055 -0.009821292597688491 0.0
313 1 5.610692206724643 16.217490975330595 0.0 0.03996121384381917 0.048146437056202376 0.0
314 2 14.612201140675758 6.294920015626396 0.0 0.012373676045843914 0.055776984833653655 0.0
315 2 15.241900065649151 8.850580872140595 0.0 -0.09030087996379911 -0.03670555335967094 0.0
316 1 16.125180961461183 18.203892974784143 0.0 -0.03156544510667249 0.03305246273551513 0.0
317 2 4.6954918900885625 2.680638318415343 0.0 -0.08091368403119559 0.028703862652988226 0.0
318 2 17.743053542187088 18.545044009495495 0.0 -0.006963704725390457 0.007822407532421435 0.0
319 1 5.888686907143926 0.896113363767366 0.0 0.09880638844077692 0.07980493322364864 0.0
320 2 9.696029395176334 0.7611340546746547 0.0 0.07069596559829365 0.06319176366746646 0.0
321 1 0.5077214067340334 1.3173795098510934 0.0 0.11026932651314326 0.07483898620785638 0.0
322 1 1.053524243689704 0.9504604602298251 0.0 0.17761751295557987 -0.0636385492194426 0.0
323 1 7.587990031103353 8.152142699834295 0.0 -0.0661989241753093 0.00781226935317506 0.0