ITEM: TIMESTEP
0
ITEM: NUMBER OF ATOMS
400
ITEM: BOX BOUNDS xy xz yz pp pp pp
0.0 19.7609 0.0
0.0 19.7609 0.0
0.0 10.0 0.0
ITEM: ATOMS id type x y z vx vy vz
1 1 10.504749578070873 10.831800100475947 0.0 0.07030662416266528 -0.06321594599136102 0.0
2 2 16.221752999789118 18.023747192673827 0.0 -0.00030627239173268894 0.04130985437237354 0.0
3 1 12.01571471040795 15.129636831791235 0.0 -0.04010954823804596 0.06511728948452941 0.0
4 1 5.287739795285691 3.3563794948777583 0.0 0.0014007035131151553 -0.20515036617793603 0.0
5 1 10.082991489913782 6.947727066898397 0.0 0.0552356219866592 0.000900253320720061 0.0
6 2 9.284081340870872 17.79631981282823 0.0 0.01729254378442669 -0.05437334863602057 0.0
7 2 17.291866405831723 17.327357120819837 0.0 -0.012598154383977423 0.052947007461066044 0.0
8 1 18.293744899383483 19.29730919041556 0.0 -0.007331969207346036 -0.02303900988020447 0.0
9 2 16.247503481423 16.633017954867288 0.0 0.018415081282667473 0.053039970966458544 0.0
10 1 10.631604046168631 14.128263752166935 0.0 -0.03972545003403965 0.07259926318005165 0.0
11 2 2.9516512690835133 1.9104911594265466 0.0 -0.04036820383008403 -0.062295016287686154 0.0
12 1 6.514906821538316 16.554528199300456 0.0 0.028869912031863443 0.01545448368452862 0.0
13 2 14.869643319799723 2.1070819551433466 0.0 0.046667365861319775 -0.010872277237486528 0.0
14 2 6.27257115648271 12.726491719725777 0.0 -0.007610253563229084 -0.025547566372179663 0.0
15 2 6.770464500835904 4.786999740809226 0.0 -0.026701130639250413 -0.05029352185003989 0.0
16 1 17.64178757899902 14.058167284228942 0.0 0.0028501577098113944 -0.004666039553368815 0.0
17 1 7.044542789121773 7.921337101062239 0.0 0.009618706464134957 0.04542247947014663 0.0
18 2 13.926427792245942 6.437776540346191 0.0 -0.05518352034925188 0.04539984200601142 0.0
19 1 3.2702869873061733 0.8082979751899864 0.0 -0.20190136865743435 0.0004555641695234405 0.0
20 1 7.872574551203818 13.135419731816906 0.0 0.08138276726963699 -0.04066354448826879 0.0
21 1 1.044151001995022 7.990592365894293 0.0 0.07978916618781387 0.01644888673442705 0.0
22 2 16.062556500731016 3.2129733787990604 0.0 -0.02968206622258483 -0.06204289888151924 0.0
23 1 8.392780415791167 3.0829712057798564 0.0 -0.03567352966826314 0.032728978508807266 0.0
24 1 15.925240468429568 15.570673578132855 0.0 -0.0766348320299809 -0.044638479057349384 0.0
25 1 11.497897897416195 0.40185954291444775 0.0 -0.044221191308978065 0.06269335922978554 0.0
26 1 14.759765606080176 9.696521565242406 0.0 -0.014037374303810976 -0.08137005352157688 0.0
27 1 0.2969352337175787 7.020601587309181 0.0 -0.025417237984159312 0.10974939836977368 0.0
28 1 0.5829704528951697 2.050509937201004 0.0 0.08075378893128418 -0.1402654434833075 0.0
29 2 10.976033400890142 11.820817933064866 0.0 -0.035738182101507567 -0.11455157259518525 0.0
30 1 0.36277676877873327 7.740960629047702 0.0 -0.21824377137584622 -0.012793001897821715 0.0
31 1 12.695128595882093 16.73211870992546 0.0 -0.006140912774496879 -0.01674079267157694 0.0
32 2 17.450565353708008 9.561879014939368 0.0 0.028004591558428552 0.010485815792200408 0.0
33 1 17.193011216592208 5.321816638203677 0.0 -0.05927216152017389 0.00547707959440337 0.0
34 1 2.580253935856189 18.260415216529488 0.0 0.019704723306025254 0.09159726896533113 0.0
35 1 19.503648967783 7.393755734077385 0.0 0.1175350770684497 0.05305330176774605 0.0
36 2 4.9608903719627415 14.405369298842391 0.0 -0.039649736773089805 -0.03354950940403479 0.0
37 1 14.150876899669722 4.17928279882533 0.0 0.1298058980526801 0.14182453213604845 0.0
38 2 16.41411769471149 12.423913358673786 0.0 -0.025711991155645483 0.02482343751216617 0.0
39 2 17.105254126939794 7.194754106304531 0.0 0.041987911496187184 -0.039432415427477954 0.0
40 1 4.534351102169216 18.067811658466894 0.0 0.126517686398986 0.1593931966543442 0.0
41 2 0.7317887981486559 4.560415767976009 0.0 0.041931855658514476 0.040447415063839066 0.0
42 1 2.349372450732287 8.584609462990722 0.0 0.19443732355485235 -0.08205546469041575 0.0
43 1 13.497949154340143 14.387278658973003 0.0 0.03196723736030525 0.024253596821806264 0.0
44 2 8.199880534082 9.471814419071896 0.0 -0.007407704561228069 0.016264644780994836 0.0
45 1 12.121833052944476 17.08027460457357 0.0 -0.08204266547484279 0.11660581852046117 0.0
46 1 3.2469228002057493 19.26645921526749 0.0 0.054047909841260185 -0.01608994282982718 0.0
47 2 12.919304398608915 15.67665329894927 0.0 0.029274384810049184 0.06622788263901849 0.0
48 2 4.098641960925889 9.22588201270689 0.0 -0.1163234142956832 0.06832983573656656 0.0
49 1 15.745461470007205 1.4356305444605493 0.0 -0.10966210955446129 0.08187207188655644 0.0
50 2 17.34112726913501 0.07183271595808649 0.0 -0.043701439517974165 -0.01975784336987547 0.0
51 1 16.139733524988355 14.91572738317773 0.0 -0.17902937198223642 -0.06927750975777425 0.0
52 2 8.801793109949788 12.606653972607305 0.0 -0.08283187380040119 0.04533840091050881 0.0
53 2 10.501534706496598 15.817142279652119 0.0 -0.04700842812059669 0.032298996841356384 0.0
54 1 5.1630450453984755 1.6830940565276982 0.0 0.023659918066013814 -0.021826066974260077 0.0
55 1 3.450903496871555 2.9492279742924254 0.0 0.0778878710140317 0.020805680908855234 0.0
56 1 11.43768285037459 19.187498007646607 0.0 -0.05392697639396416 0.05340124927158698 0.0
57 1 0.6580963168204838 10.572475404948188 0.0 -0.05816896921981993 -0.13363119955454802 0.0
58 2 3.7862118100395534 12.610319624602766 0.0 -0.0412821448776308 -0.05411054563036846 0.0
59 2 14.304332111548415 10.696136343605724 0.0 0.03055219674278039 -0.03804349595621318 0.0
60 1 19.444535781755757 6.686668039214849 0.0 -0.036000427734310655 -0.07891286634836166 0.0
61 2 6.003275539855681 18.960142145970977 0.0 -0.006607812520517943 0.016395919351543737 0.0
62 1 13.395380438468619 1.3196455944995489 0.0 0.03774479387795581 0.06702560746007341 0.0
63 1 12.825184448461195 6.212717734317843 0.0 -0.06820594293168981 0.12902111967928784 0.0
64 2 16.070910044384682 5.308774767304932 0.0 -0.11668692341746388 -0.04682292698932127 0.0
65 1 15.964807368523674 2.056141260021134 0.0 -0.008154917404077247 0.05365429300356558 0.0
66 2 3.487183311200598 5.4074068885805815 0.0 -0.06746915327881209 0.00891173499343999 0.0
67 1 8.598015955970617 14.271178013140439 0.0 -0.17407646155483492 0.07726704376397202 0.0
68 2 1.1115390979174005 12.568651227633275 0.0 -0.008340462168366387 -0.03575667222626916 0.0
69 2 19.259780121878457 16.576735527945683 0.0 0.020009586522598256 0.05104139849251355 0.0
70 1 12.928991947770246 6.8751160580998345 0.0 -0.07738738123436133 0.05018342849625643 0.0
71 1 3.5016469988061587 17.25760725170119 0.0 0.08853754775841938 0.0197156382405493 0.0
72 1 16.99072861686378 6.021045964855957 0.0 -0.015401762927579641 -0.0008536426313719158 0.0
73 1 10.803494890540021 14.774297114811512 0.0 0.08339002174349242 0.0043743194851747266 0.0
74 1 9.520406490785787 9.603803134822664 0.0 -0.06790736947434577 0.16658582243606568 0.0
75 2 7.594438272197729 3.8371126886243596 0.0 -0.016606759131629893 -0.003616162010959698 0.0
76 1 10.475068170558618 2.4219998558464164 0.0 -0.005862529795946396 0.008121819856568322 0.0
77 1 4.741534166876954 12.093945902500197 0.0 0.12030408715425919 0.03295299350952977 0.0
78 2 14.96362887007208 7.280559080723565 0.0 0.02392366156933858 -0.04854996941478751 0.0
79 1 18.527244872915922 18.690963152006805 0.0 0.03344082282225175 0.017524308105240027 0.0
80 2 7.113472075659993 6.004505520080576 0.0 0.03894944188669725 -0.031218560269071 0.0
81 1 7.379208555177517 11.41079262944509 0.0 -0.017405265235585343 0.033718161226253617 0.0
82 2 4.7780523588333095 7.358188569553354 0.0 0.03529770271152581 0.039501539307029834 0.0
83 1 19.160269936121846 18.57021025035463 0.0 -0.016570791417810943 0.07855212553680635 0.0
84 2 12.430153855634574 9.781693651335381 0.0 -0.01164225220672292 -0.018280047654448846 0.0
85 1 18.70348201599831 14.909589373325373 0.0 0.026721282488057576 -0.06704721300273539 0.0
86 1 14.11388673622132 9.575113679200697 0.0 -0.014097885402174899 -0.08003535911788283 0.0
87 1 14.842557611657236 4.501177742318849 0.0 -0.026373662254232468 -0.013766010400167865 0.0
88 2 8.221512592594316 8.230183321542983 0.0 -0.04641278063132031 0.025377397640898434 0.0
89 1 12.757495565486115 17.41296657368304 0.0 0.00951267481617581 0.037947085305230444 0.0
90 2 7.359181001946642 2.6192921701611716 0.0 0.01292797826494172 0.0765928140207467 0.0
91 2 9.78667426061916 8.048133216817892 0.0 0.03078280645100109 0.005003577531725311 0.0
92 1 15.322912857741283 12.15077656644391 0.0 -0.16845214434000522 -0.06411975757103515 0.0
93 1 6.364094832393084 7.914298499353614 0.0 0.051069906926080995 -0.013762579770476954 0.0
94 1 17.0548752600226 14.422446403635561 0.0 0.05895400912884919 0.01799085372301243 0.0
95 2 6.989542334454328 9.02384636033244 0.0 0.015092785517412792 -0.002384330230049857 0.0
96 2 4.271682608402273 16.472846621071586 0.0 -0.02728579830754812 0.04009645494555447 0.0
97 1 6.109324054925637 14.41766069734511 0.0 -0.09603608853717391 -0.020050554780592224 0.0
98 2 7.265686119717075 10.322576831337953 0.0 -0.03494058510241348 -0.006849540410192577 0.0
99 1 16.44981122298507 9.942501242303155 0.0 0.01006532294814884 -0.07008751499280302 0.0
100 1 3.1859237980653847 0.16212158968192814 0.0 -0.14148504636032372 -0.03896067088325575 0.0
101 1 18.60111690340193 13.14166035995168 0.0 -0.06261301020888967 0.12174114198239733 0.0
102 1 0.2609244838566362 6.321056816025508 0.0 -0.046305111892969535 0.13546652751375454 0.0
103 1 13.421780616869324 17.68537582432091 0.0 0.0021680396720462204 -0.07412953729955755 0.0
104 2 0.8100813795126409 13.80021770585215 0.0 -0.023408445082492117 -0.01634775131816649 0.0
105 1 9.868322607007068 4.221203723559992 0.0 0.015667942809416354 0.08115344820074018 0.0
106 1 15.676355246481853 8.835287918334743 0.0 0.06539488759114968 -0.06925232155755565 0.0
107 1 12.546200196567039 2.2602866334624725 0.0 -0.06755488317627985 -0.0021471632389792597 0.0
108 2 0.356660574686128 19.02982751664032 0.0 -0.007564953296635806 0.12679519954204738 0.0
109 1 14.670841851030522 17.296325888896515 0.0 0.1067262661157058 -0.07787571611906695 0.0
110 2 14.104414800878219 15.407597556886241 0.0 -0.05330811003825634 -0.11725903380405696 0.0
111 1 13.155486731068459 5.6258967234728665 0.0 0.14965300520831107 0.04317899634618159 0.0
112 1 5.087299004286684 18.409903924498597 0.0 -0.04174711184079508 -0.11579613555697228 0.0
113 1 5.978263870073614 7.333360155284856 0.0 0.011291961862904409 0.004072046092272395 0.0
114 1 2.9829783266224585 8.896117375418564 0.0 0.11732358716384995 -0.0569147035790005 0.0
115 1 0.20042138360518943 5.654750087420734 0.0 -0.06341136590402928 0.02751667495494346 0.0
116 2 12.562652781028639 0.6030671507809464 0.0 -0.07616581450818576 -0.0013869094624859822 0.0
117 2 7.204890857627087 19.452906987328088 0.0 -0.04427874389672914 -0.04441856070923993 0.0
118 1 1.8513481081143799 13.378402750431023 0.0 -0.06482240721900492 -0.05797574378858015 0.0
119 1 15.354838344678205 9.401168285112377 0.0 0.14349113071804737 0.03808658660733137 0.0
120 2 11.727508943134977 1.5095481465766472 0.0 0.07036062603063038 0.02473482185193632 0.0
121 2 4.6879421327044675 4.905425541413162 0.0 0.021123713331649304 -0.017454680204982528 0.0
122 1 15.069237114131255 11.51460771676238 0.0 -0.03775583857614837 0.0897239063096186 0.0
123 2 13.716803488449626 7.667011083642791 0.0 0.07035685011118412 -0.057722032960751415 0.0
124 2 4.957240871940468 0.5549756256409322 0.0 -0.057521358950688675 0.009926031622445841 0.0
125 2 5.904055224533777 17.683371342026117 0.0 0.09253641252842175 0.043811825083397385 0.0
126 2 8.34506854322326 0.14924319491182186 0.0 0.09729920023867938 -0.05275802071020539 0.0
127 2 3.100658111965021 16.17796580509848 0.0 -0.09166182207434695 0.021826508959163823 0.0
128 2 2.425133817176959 6.243060474769276 0.0 -0.05015156566576138 -0.05519827324891612 0.0
129 2 10.493835305356042 19.74122522158461 0.0 0.017974485684698897 0.007465495967665448 0.0
130 1 10.760449474618477 16.87205804708878 0.0 0.06310470627062077 0.005317120506304187 0.0
131 1 3.8609493381997204 18.162549313207425 0.0 -0.20809917730298655 -0.11507059930358222 0.0
132 1 1.8375142195621612 18.130869440784352 0.0 -0.034778879996721544 0.03542804025568491 0.0
133 2 4.53132352252941 2.587905766364581 0.0 -0.0013139806963253936 -0.03721450390345194 0.0
134 2 9.513950243602213 3.1155694677078474 0.0 -0.011547072261090105 -0.019385915674305743 0.0
135 2 10.746466618725886 4.930134466898069 0.0 0.015083618702512305 0.006447061942956243 0.0
136 1 16.04138829221901 9.41621111775173 0.0 0.08832620412732724 0.13148369099564838 0.0
137 2 7.97657620141377 5.046234827205227 0.0 -0.06669834361532692 -0.057387491066792945 0.0
138 1 11.65097242140183 3.1140852279706546 0.0 -0.07702438178254013 -0.017280475234723126 0.0
139 1 14.047208910963985 1.387075855507609 0.0 0.0513638606706278 0.04582884359074206 0.0
140 2 8.41068931115799 15.318271592401475 0.0 -0.03501250591223242 0.046002513598325134 0.0
141 2 6.2940689535880825 11.432592044599831 0.0 -0.046595158418826554 -0.004481737545145387 0.0
142 2 7.018044599307239 18.21805143837877 0.0 -0.014852338078954568 0.05797646410314276 0.0
143 1 14.204609782990442 4.8275770791134045 0.0 -0.07799812903624537 -0.039654736108647705 0.0
144 1 10.316641826202936 6.00865126498436 0.0 0.04635756294026386 0.004167992536028755 0.0
145 1 12.892923768669935 18.090897843812474 0.0 0.12910011623982356 -0.06596868599134212 0.0
146 2 2.242070246913329 4.950200518111227 0.0 0.005037179365597461 -0.003853961811479616 0.0
147 2 2.2054850734727776 0.7678709648878306 0.0 -0.1000509609309646 -0.05983804602845255 0.0
148 2 13.775582160942799 16.644426527731827 0.0 0.004118846022587931 -0.003725759483368803 0.0
149 2 12.036832604508632 5.446029330977309 0.0 -0.042521733022324114 0.024501131274051794 0.0
150 2 9.427657356300136 1.889743054139821 0.0 -0.013259907367886908 0.015096378378101372 0.0
151 2 11.82841686080951 6.704195612323016 0.0 -0.0222971918152002 -0.010443568787971811 0.0
152 1 9.205913920615448 8.988067325577635 0.0 0.030955137076320215 -0.033314531473385624 0.0
153 2 11.676049591946494 12.85502544415663 0.0 0.056139134519281916 0.06538712528351344 0.0
154 2 12.716220205326199 3.3358538805272446 0.0 0.029469564407964 -0.1161023075236078 0.0
155 1 3.829274703836994 0.4051030024669831 0.0 -0.16147749704763076 -0.020916349565787556 0.0
156 1 11.36104783051067 15.165818671407727 0.0 0.11565962954805134 -0.031530959804482075 0.0
157 2 2.4167088558919163 12.389897823443142 0.0 -0.04558913499692634 0.0016760546612780353 0.0
158 2 3.8852468800867594 11.340007384241447 0.0 0.04292625196512937 0.011696708855287096 0.0
159 1 15.73306064288687 14.38765701988529 0.0 0.07272659293981519 -0.04570142738273379 0.0
160 1 9.71546036485682 6.354983954414128 0.0 0.025028513022610357 0.16173267245199136 0.0
161 2 17.509372505177087 1.3399578461550847 0.0 0.09018164501815215 0.016862537379966003 0.0
162 1 18.492405308028676 9.241908362433028 0.0 -0.0740939149037484 -0.017525457506961998 0.0
163 2 12.789831722481132 13.45797012106877 0.0 0.00993200598057845 -0.05770407690765871 0.0
164 1 15.355651989389813 17.299596190137812 0.0 -0.08135712077964058 0.023734611333173134 0.0
165 2 19.232622044206906 8.452902271042866 0.0 -0.024726609732776468 0.009323311444199914 0.0
166 1 15.458123005600358 15.097953520209996 0.0 -0.13141766055167473 -0.028051988986479176 0.0
167 2 1.4375266756104796 11.354972447992008 0.0 0.017489074002278886 -0.08276226553311027 0.0
168 1 18.253478204942425 13.72867740062854 0.0 -0.06463580523707703 0.05198666159262588 0.0
169 1 3.3226430188304876 18.5799318850227 0.0 -0.010859173959508807 0.07296753831259682 0.0
170 1 15.74772258354159 11.574863942656512 0.0 -0.01226864669051842 -0.07911870890503724 0.0
171 1 4.280082067620956 10.294380995743914 0.0 -0.03212683153462616 0.03377760988752877 0.0
172 1 1.1912411767607505 8.655565596419269 0.0 -0.08091822481646879 -0.06743206705283396 0.0
173 2 3.7091336796734566 8.058038775567342 0.0 0.021668200475597612 0.023791008801232597 0.0
174 1 19.68716463620615 3.742578256657189 0.0 0.17322700599667887 -0.08485261974627427 0.0
175 2 2.4271577741989825 17.198359524649774 0.0 -0.08800654823686305 -0.10070461095033074 0.0
176 2 16.96595995536497 2.41667222890882 0.0 0.10458570981591732 0.03647915765660133 0.0
177 1 4.907244261059481 9.965553458506662 0.0 -0.029717111471256052 -0.007542524394320018 0.0
178 1 6.663783095416956 7.307921583282086 0.0 0.061838175237097094 -0.04303327635070528 0.0
179 2 15.992724782559273 6.541614411820419 0.0 -0.0037772941202473182 -0.12047974027000276 0.0
180 2 14.899783836514054 5.654909241418307 0.0 -0.10634954099747512 0.055679882328973564 0.0
181 1 7.189224951402676 12.051127989829459 0.0 0.07245366156172069 -0.031120921903058724 0.0
182 2 0.03323124438176377 15.084591272710242 0.0 -0.012382895263623798 0.0445282552163862 0.0
183 1 1.2924735894405237 19.63980628264157 0.0 -0.031783575716765086 0.009433737813407256 0.0
184 1 5.22366963107313 9.350073063951804 0.0 0.03114126886813053 -0.03995335516313116 0.0
185 1 1.051738727197229 9.302341757482823 0.0 -0.019528477957984472 0.11447235738059716 0.0
186 1 5.3948905359490515 8.661421228764594 0.0 0.011688399571829815 0.003415391915491698 0.0
187 1 16.06284191115639 7.639299218974583 0.0 0.09310479963212338 -0.0648179913104163 0.0
188 1 1.5199443153201317 6.883071902961148 0.0 0.014009905925960067 0.05573051198092572 0.0
189 2 11.811738299766509 4.204734362559661 0.0 -0.021864534545742803 -0.028069239457399878 0.0
190 1 18.572615049621227 1.6798667309735658 0.0 0.06542703276484577 0.06615009844749363 0.0
191 2 2.3071166402397782 3.0617535338861743 0.0 0.048267993813782474 0.04836297918830364 0.0
192 2 15.455919563491209 13.279489979239887 0.0 0.028234015725299263 0.024240406111828764 0.0
193 1 6.056471645854433 8.504523447717276 0.0 -0.03036662864721334 -0.12448373749638655 0.0
194 1 1.18013719183452 18.309065931397353 0.0 0.04759383450978499 -0.020507145181969853 0.0
195 2 2.577945640560459 7.510005566669862 0.0 -0.0056895182972152136 0.03810213763899192 0.0
196 1 5.653361886897473 6.7149509409412795 0.0 -0.06869460442492244 -0.006892817576567204 0.0
197 1 17.420542868969914 11.860142329256423 0.0 0.00980497767377361 -0.00014813708872698768 0.0
198 2 0.2045563083233161 11.638481524388817 0.0 0.007138516852069783 -0.011356532042653102 0.0
199 2 8.867055041002589 16.586476881434294 0.0 0.08943631710391325 -0.07462859656138357 0.0
200 1 11.02295834423326 5.974683999320493 0.0 0.023330530275569944 -0.0007572676888961942 0.0
201 2 0.9240128942558995 3.1489565574295466 0.0 -0.05248259308959312 -0.06212096340707729 0.0
202 2 11.720611467126977 14.107197145210355 0.0 0.05855976668146468 0.02880992543435657 0.0
203 2 16.70838805103705 8.523598702126714 0.0 0.05491113417475109 0.0182630083675119 0.0
204 1 7.890209875121828 11.879667604137596 0.0 0.0489718086527535 -0.06131809250242187 0.0
205 2 9.593146557649481 11.47786651869205 0.0 0.0267808541739322 0.0355286909442642 0.0
206 1 0.5448242881018172 8.423971154585681 0.0 -0.1469852108253577 0.0069148667233101535 0.0
207 1 18.26320946686946 14.402191100264021 0.0 0.049856478705679975 -0.1428762476754292 0.0
208 2 0.11025797936030453 17.7514626487674 0.0 -0.0313486408987214 0.08801281840959482 0.0
209 1 7.3941164372253345 12.681622273061118 0.0 0.03160839029797622 0.0008858006822781327 0.0
210 1 1.7809845903071946 8.978498505594306 0.0 -0.06578395228660709 0.06830016118712719 0.0
211 1 10.152809442587246 13.683301288733677 0.0 0.020649241828911653 -0.03526446369916772 0.0
212 1 2.073975176993238 18.749073536065186 0.0 0.0067462176155542895 0.009816219111883897 0.0
213 2 5.935190437331677 2.446319612497618 0.0 0.015207086807100444 0.024616939191497288 0.0
214 1 1.4400775502779384 18.96482209087123 0.0 0.08411114663515587 -0.08646293700002147 0.0
215 1 14.473074069753139 11.81193845011153 0.0 -0.031945998214849815 -0.045253161779725756 0.0
216 1 1.5283514060567611 7.556231340101 0.0 0.016454068225695295 -0.01631782846513509 0.0
217 1 9.958186923325059 16.797033302726305 0.0 0.12812491967809586 0.016360810812843705 0.0
218 1 13.794543189525402 11.639624170348405 0.0 0.12649445911616236 -0.09286653033888448 0.0
219 1 18.484970060192925 9.913717034413573 0.0 0.05944578852478895 -0.18568912722105607 0.0
220 1 14.687126936636357 12.447890634204224 0.0 0.15226727539913223 -0.0005130373316800182 0.0
221 2 4.1066798072544355 1.4694804810800097 0.0 -0.011917913864967017 -0.03687057388339629 0.0
222 2 17.302472864544566 3.64434100283291 0.0 -0.010836721444471184 0.03763529631898826 0.0
223 1 5.348081846615805 13.335948077062474 0.0 -0.02503449574956415 -0.006715961659841692 0.0
224 1 16.344790648947352 4.2624490561267985 0.0 0.03588693667708968 0.002382857026278113 0.0
225 1 0.4131561868263306 9.09881814376865 0.0 -0.01771807650501062 0.04091994651859243 0.0
226 1 13.254886342152274 10.48857315905868 0.0 -0.01543984986815391 0.07858896468148875 0.0
227 1 4.111923359853718 17.54417642722986 0.0 -0.03237824735291031 -0.03425864698487926 0.0
228 1 12.077812397270769 11.854473694665405 0.0 0.08073935702799596 0.08935269013652065 0.0
229 2 10.998964787106367 7.663079730914538 0.0 -0.016367028326635415 0.01171600566653587 0.0
230 1 11.409153237031298 16.400038052436138 0.0 -0.08219775851087714 -0.040647351282262614 0.0
231 1 12.82760471287021 1.670438975887839 0.0 0.052552357460540496 0.008293048375468695 0.0
232 2 10.538112074981852 1.3000701360282858 0.0 -0.03720761113044505 0.020362972839058167 0.0
233 2 8.978907959545396 7.191529818753662 0.0 0.03711631993227273 -0.11991963194950812 0.0
234 1 11.737433754913656 15.76386139429417 0.0 -0.06810067038278422 -0.047532573351962766 0.0
235 1 5.4054593403210305 12.091500431795131 0.0 -0.0835241200120763 0.08257298174124895 0.0
236 1 13.527865704733046 9.885043327983265 0.0 -0.1105377179030971 -0.0066569912395360005 0.0
237 2 18.01152985940433 10.903827799467853 0.0 0.0808368856815076 -0.02679678603027303 0.0
238 2 18.488317913589945 0.5836214865091965 0.0 0.02579955183136595 0.0006887804897567545 0.0
239 1 1.9487507097150536 19.419668706664936 0.0 -0.025065447832526292 0.03370174346240112 0.0
240 1 16.50996476076958 19.110857669049093 0.0 0.0663462590743991 -0.061888364013858145 0.0
241 1 6.3074700825271846 6.71949329398758 0.0 -0.006913001045278712 -0.0652128786404634 0.0
242 2 19.29421958966551 10.634886289470785 0.0 0.0049159473399156455 -0.03479251615922754 0.0
243 1 19.744854710100693 9.618985899283258 0.0 -0.08351499127407518 -0.04218667480504864 0.0
244 2 9.395418911050717 19.110406975242466 0.0 0.022988603496008553 0.007060930371499679 0.0
245 2 13.271916851758839 8.830508938605222 0.0 -0.03440706131940047 -0.08010502771633747 0.0
246 2 4.2508090419243425 3.7674709106213475 0.0 0.017462592182183358 0.010169314614240968 0.0
247 1 10.290252397909088 17.382855258419745 0.0 0.026076258577539063 -0.0020492491124295647 0.0
248 2 4.677372923398927 6.124065030850272 0.0 0.044298649780804895 0.08843096333220185 0.0
249 2 5.440706648410525 16.569760709638054 0.0 0.07296126299797308 0.06537171146479438 0.0
250 2 5.853048280250574 5.656055428481908 0.0 0.03897540160806123 -0.03857188514101187 0.0
251 1 16.912141718666927 4.659085685248729 0.0 0.020836465787083047 0.06066671493146538 0.0
252 2 18.532218224670864 17.601609448472434 0.0 0.06904386590148404 0.02911267006247916 0.0
253 1 8.52546357174655 1.2559133938215314 0.0 -0.061746699734337857 0.06577334292301136 0.0
254 1 13.791522658762895 5.365520113126037 0.0 0.00493574416277195 0.041102500458461505 0.0
255 1 6.876131797408275 17.11563448381495 0.0 -0.04408455530669514 -0.08729031170728221 0.0
256 2 3.5960933896817426 6.744834230968316 0.0 0.05266245818332722 0.1040499759771715 0.0
257 1 5.7277575401629 4.557351814940229 0.0 0.0040042396067360205 -0.1415658909270183 0.0
258 2 14.914837984495486 0.7284436077612163 0.0 0.02692130066107835 0.004283871588889043 0.0
259 2 18.000748455504446 16.335956510845836 0.0 -0.06856302610510108 -0.01968672444604298 0.0
260 2 19.677732044066172 0.42328071525524946 0.0 -0.0178831994789597 -0.012256526537088122 0.0
261 2 17.018666474957673 15.557033100254039 0.0 0.04837828438860305 -0.07082279523330143 0.0
262 1 7.940004680326592 14.29424634274689 0.0 0.023626914145720764 0.10486968228736031 0.0
263 2 2.664748798885647 11.148898286058795 0.0 0.010715489089520771 0.040200810364394934 0.0
264 2 19.634827527694153 12.808602946005653 0.0 -0.03730876751159674 -0.012685729930312285 0.0
265 1 5.864177778441367 9.141014847020692 0.0 -0.07956470676473339 -0.11685614232331451 0.0
266 2 3.0649572634941156 4.02909052492626 0.0 -0.01545126002277766 -0.001532497059216845 0.0
267 2 15.518003649128337 10.4984467424998 0.0 -0.03003799024806662 0.027269323850172483 0.0
268 1 18.119327073397624 15.231685635251738 0.0 0.041782026176730776 0.006958420982813428 0.0
269 2 7.546732382789383 16.213815368120102 0.0 0.08026861814314985 -0.011138194959456834 0.0
270 2 2.9585295230606907 13.559088915385841 0.0 -0.03116029581118255 -0.0965973013022807 0.0
271 2 9.638893639133084 14.61222483894853 0.0 0.010589193164504067 0.016136404689984042 0.0
272 1 5.3377851581133156 4.021021197418262 0.0 -0.02885288975081788 0.13550559807129495 0.0
273 2 18.155260097466584 5.917062060852444 0.0 -0.06216448430010485 0.021811019326028518 0.0
274 2 11.6900186175713 8.807709503337783 0.0 -0.03369525394002289 -0.0034579226174176864 0.0
275 1 8.893853418251561 13.703911894368135 0.0 -0.016287490370739212 -0.03864758704271485 0.0
276 1 3.2487541387582453 17.90234506259024 0.0 0.00016405724658943315 0.04533834667284103 0.0
277 1 15.635083630305147 8.161176710879818 0.0 -0.06625740804863132 -0.12583194854373334 0.0
278 2 6.047171221774103 15.516751032323779 0.0 0.060804638695809654 -0.07334774085025553 0.0
279 1 5.8802645301202405 13.77272138655221 0.0 -0.004930977542171201 -0.0005894164470172077 0.0
280 2 17.944808933175246 8.30678427622089 0.0 0.011744554197995105 -0.02160661084250861 0.0
281 2 10.505335859205685 18.4851148820111 0.0 -0.0011038756110412086 0.006476749322253663 0.0
282 1 17.676980964988143 14.718809506741898 0.0 0.010591232588732147 0.000828070224216062 0.0
283 2 12.418695685841868 7.822114659353685 0.0 -0.036160383884866365 0.054095749919181965 0.0
284 2 8.591121277004177 6.064665320882241 0.0 -0.058467076332895246 0.06686834137938245 0.0
285 2 1.3231617678108871 14.961310576855004 0.0 0.0031588678800721784 -0.0008578439993418434 0.0
286 2 7.9491188546173355 17.39743758579687 0.0 0.11291652760093814 0.12477587608091213 0.0
287 1 15.295264449383001 19.44644210916248 0.0 0.006550082360575171 0.06500730273167855 0.0
288 1 10.940305722209926 17.504130349207724 0.0 -0.07372725077005467 0.09549572215515656 0.0
289 1 13.772048585934746 3.6006360957500854 0.0 -0.20761569478091563 -0.07159520162211985 0.0
290 1 5.667275246596565 7.97362605729304 0.0 -0.057962710427389846 0.0069931543305735205 0.0
291 1 10.0068952016823 9.135374557183248 0.0 -0.05441882228768539 -0.03297216087147321 0.0
292 2 4.312576003323415 19.161370322783412 0.0 -0.01354275307546659 -0.04307330687468366 0.0
293 1 14.106945029195272 17.680371162421537 0.0 0.031893308918153826 0.12373942124358274 0.0
294 1 9.507696095099575 13.511803413704538 0.0 0.011100930098516645 0.014995556662954128 0.0
295 1 14.635010408165485 19.417252632528164 0.0 0.09291742674164766 0.010159172227154036 0.0
296 1 4.674633255711257 13.272298636164075 0.0 -0.012516109375884744 -0.06997239754091827 0.0
297 1 16.407479405970083 1.4853310451816346 0.0 0.08601923847242297 0.03984609675593141 0.0
298 1 1.6824558416089646 3.9911055406968665 0.0 0.19613514854939582 -0.015155486289715766 0.0
299 2 7.738610443237901 7.058341656724256 0.0 -0.10403898206508987 -0.05148711785564014 0.0
300 2 6.99003188527678 13.738247710636694 0.0 0.04992556852114522 0.10256532676042183 0.0
301 2 6.351321074773154 3.6035620533732287 0.0 0.05127370083341265 0.011188530538150943 0.0
302 2 17.45099559019865 18.562010243273473 0.0 0.04131406645941297 0.006296650537793881 0.0
303 2 8.799765639455003 4.123202850696718 0.0 -0.07485932344438614 0.025544108484679317 0.0
304 2 8.237530783609428 18.624584172405015 0.0 -0.03034722846402683 0.05422422911524025 0.0
305 2 7.132723624803875 15.003077527803587 0.0 0.08861814455258368 0.06301088293625216 0.0
306 2 12.548741971843237 19.133494589880684 0.0 0.022063027399098323 0.018299480474258452 0.0
307 2 18.586003577842405 3.823301891097178 0.0 0.00952373965328971 -0.017736741779627266 0.0
308 1 12.082993393964989 16.39963140410881 0.0 -0.11721220179864393 -0.005384738038812671 0.0
309 2 11.640569300781435 10.808399285226363 0.0 -0.08330846826012456 0.01931160004866287 0.0
310 1 19.340072076438783 5.990648762508795 0.0 0.12443671493494912 0.09795645643808877 0.0
311 2 10.077748817919844 12.616046197585705 0.0 -0.05166300517037053 0.011915736701359866 0.0
312 1 18.80479629233815 11.772343663758372 0.0 0.0931504681279574 -0.033786985180096256 0.0
313 1 2.6230918183259653 19.544482210198698 0.0 -0.023797162994157205 0.022932670065556476 0.0
314 2 1.6664014767343343 2.014109567585414 0.0 0.025438685449837448 -0.01674779191588214 0.0
315 2 13.73677579735896 0.2640263627775139 0.0 0.02649147730766044 -0.011666457784284687 0.0
316 1 9.960342681828628 10.415621731244563 0.0 -0.024345804770111754 -0.0557656684530192 0.0
317 2 11.808953538908492 18.12771203422305 0.0 -0.01230632945341831 -0.10349410396028577 0.0
318 2 14.599320824308776 8.579089018597688 0.0 0.06186372393260906 -0.056899069730984915 0.0
319 1 19.201525915252613 1.4662629396367528 0.0 0.085610214036614 0.06417946886603171 0.0
320 2 1.8938016979528165 16.053366068735503 0.0 -0.08991675929270784 -0.07842340156170825 0.0
321 1 0.6308529442350839 9.87550784786797 0.0 -0.10297653416143894 -0.020374142031794332 0.0
322 1 8.216343897844947 13.699081870632504 0.0 0.03244896149584658 -0.1030862431861747 0.0