ITEM: TIMESTEP
0
ITEM: NUMBER OF ATOMS
400
ITEM: BOX BOUNDS xy xz yz pp pp pp
0.0 19.7609 0.0
0.0 19.7609 0.0
0.0 10.0 0.0
ITEM: ATOMS id type x y z vx vy vz
1 1 5.3049904797087075 16.777778056679967 0.0 0.03775523302481286 0.05288082458467781 0.0
2 2 7.592528444547922 2.44383295429788 0.0 0.09026287169115288 -0.0058882474551014965 0.0
3 1 6.0753763666173 0.047672035460557295 0.0 -0.10447909190495505 -0.009986046358326747 0.0
4 1 4.672870420634517 2.4554942638786956 0.0 0.04132985965633324 -0.036078762074997335 0.0
5 1 5.327742509069194 4.47913373500865 0.0 0.04275162155582808 0.011127575413549936 0.0
6 2 16.762431572575675 5.8143284379422715 0.0 -0.12085542303318811 -0.056419217815585246 0.0
7 2 14.453417449519389 0.8620180425119508 0.0 -0.04094983429052071 0.06109562950491393 0.0
8 1 11.197110494546733 12.027924037088665 0.0 0.05384988269282899 -0.03161827855707048 0.0
9 2 6.389317469587596 7.9793016858441215 0.0 0.00025736834158550544 0.07002363578878437 0.0
10 1 17.954048505841357 2.1518943168931433 0.0 -0.1571034412419133 0.004202486350400243 0.0
11 2 15.61255063139108 5.352477639406067 0.0 0.008806966000091464 -0.11449503727585578 0.0
12 1 6.634155620464228 4.555727980187374 0.0 0.0480855318540105 -0.06017703090637592 0.0
13 2 8.40264614867064 10.348596530221878 0.0 0.04699721362326526 0.10975963239583601 0.0
14 2 13.553749045378314 14.0105844907373 0.0 -0.06254199539541991 0.003261012644696488 0.0
15 2 2.956733815504757 2.1428945895798126 0.0 0.02389623038208684 -0.0776865304124529 0.0
16 1 12.3552906073354 16.914106694317187 0.0 -0.0756025867617831 -0.019147692717426078 0.0
17 1 5.460612897702025 0.5322916995314785 0.0 0.14865342867428935 -0.02121609481740209 0.0
18 2 10.887610624530016 7.202466007359365 0.0 0.0698433385169126 0.10195800710892663 0.0
19 1 11.690142368238982 16.982560940062207 0.0 -0.028825687478402782 -0.06494766488970834 0.0
20 1 0.7240349836359841 15.83748634040327 0.0 -0.03271962017565514 0.11950009842052751 0.0
21 1 4.890896374090356 16.231870347712476 0.0 0.029019461094820346 0.04284962343548863 0.0
22 2 2.9066849940758077 8.766246025689663 0.0 0.07073738389157434 -0.0648692248945062 0.0
23 1 10.694030283860444 10.803603173946927 0.0 0.13151916252037069 0.046699266631839154 0.0
24 1 7.961993674509706 14.628698914874613 0.0 0.03287528863559061 -0.015274788369950972 0.0
25 1 10.373905866565757 15.759301544740614 0.0 -0.06941612646903897 0.1865738404386086 0.0
26 1 5.854864728651046 10.56941000318288 0.0 0.013539446754940175 0.013274160693736103 0.0
27 1 14.418617026343485 12.047546891472514 0.0 0.028952601031587075 -0.08043587334274051 0.0
28 1 2.003717942731535 11.84872910542264 0.0 -0.0922055563843868 -0.03166410202172824 0.0
29 2 5.370595374836017 12.898442415014431 0.0 0.1032441354312488 0.006903973106386008 0.0
30 1 13.013786429862353 8.383332426364959 0.0 0.09098494260214995 -0.13469494346978242 0.0
31 1 4.931090444854813 3.268811670211361 0.0 -0.04550709964233415 0.02337947792516336 0.0
32 2 9.08857523157051 5.847752470695484 0.0 0.034807820640271506 -0.03810681675513137 0.0
33 1 10.128037275289435 14.491262625943289 0.0 -0.020446483254978075 0.04094163404247489 0.0
34 1 5.9706905689566545 4.711247131302685 0.0 0.14010236992739303 0.12319420979099123 0.0
35 1 16.710584430728414 4.665430805194073 0.0 -0.14534888332091703 0.014409546406510343 0.0
36 2 3.621409464220139 14.228870484392184 0.0 0.011196166118529008 0.08360845295141012 0.0
37 1 17.133133006277546 18.79382587792341 0.0 0.07273227153149148 -0.1314540944421645 0.0
38 2 11.882175197197157 0.4447464459568998 0.0 -0.08564079630060142 0.004100483020456709 0.0
39 2 9.938750961162961 4.893448069325095 0.0 -0.012437530045145823 -0.02625000341326692 0.0
40 1 9.66935494406837 16.45004859110645 0.0 0.12565276300446498 -0.12021327956142605 0.0
41 2 14.36312299192417 5.596455183946799 0.0 0.04135307911888258 0.08614895009470312 0.0
42 1 8.901743640137212 12.036971464781827 0.0 -0.06515114559473922 -0.07351069439387467 0.0
43 1 10.948012608493043 16.050880265153552 0.0 0.09023735484367006 0.044808678312241154 0.0
44 2 13.485857393642513 9.461326854914109 0.0 -0.06403505793669526 0.05368043891184858 0.0
45 1 0.6690871156956666 14.06280963002272 0.0 0.11688130111759387 -0.03404568838877726 0.0
46 1 6.421079740371254 16.055805664163753 0.0 0.1082664056055522 -0.06426119053306556 0.0
47 2 11.996270494117141 15.902173606108963 0.0 -0.022453837457427964 -0.08040205572636525 0.0
48 2 7.3377789946964915 13.762109462037628 0.0 0.022917637211895932 -0.09817098816476054 0.0
49 1 4.654024736387052 16.88311590130642 0.0 0.04134637850303095 -0.006128134507069406 0.0
50 2 10.850524123619177 17.723751713623454 0.0 -0.00023543524025936252 -0.0033578210185882897 0.0
51 1 16.425274163577036 18.65324655903146 0.0 0.06824752431189553 -0.05694952214821818 0.0
52 2 5.5612064741825815 8.953940335547982 0.0 -0.010492662129858091 -0.010999921027424572 0.0
53 2 3.5615245531488107 9.876012626623055 0.0 0.0123545108282477 0.032958205965096445 0.0
54 1 4.747760575151255 19.624261264724026 0.0 -0.03600605759907896 0.12916546614583746 0.0
55 1 13.651687635828692 10.577259530197885 0.0 -0.029103313266434196 -0.05308220285035199 0.0
56 1 11.378492064027881 12.680143994167128 0.0 0.08415069653599538 0.15637851948334786 0.0
57 1 11.8024336740391 10.094976443587704 0.0 -0.07206854676692384 0.007814701512608038 0.0
58 2 13.20364893922826 15.662773990310386 0.0 0.07511418085269732 -0.08633440848553967 0.0
59 2 2.6249856465362376 5.842066429840764 0.0 -0.021728613229227957 -0.014664039941785703 0.0
60 1 6.089964141610585 0.7294464617808212 0.0 0.01699239189553148 -0.04026989347161355 0.0
61 2 9.038412989287144 14.907321624951337 0.0 0.016675985060354243 0.02162313742087509 0.0
62 1 15.81746445834771 8.488758437373306 0.0 -0.07505506834781084 0.13206146091495996 0.0
63 1 3.4881497550161993 6.534204764539697 0.0 -0.051071615587947025 -0.04090695709212992 0.0
64 2 14.304608460754217 15.055976551320208 0.0 -0.030540244224273885 -0.04415206579590084 0.0
65 1 11.314058427554794 13.352000787852065 0.0 0.085466294013114 -0.0045939451429399545 0.0
66 2 19.28195268367403 3.2099978857001865 0.0 0.1285706410562027 0.051992484753006794 0.0
67 1 5.319511167847953 2.709120334423741 0.0 -0.07937949996682862 -0.03051066282730724 0.0
68 2 8.10914659635094 15.712615603712592 0.0 -0.02899338466620095 -0.005650703616518462 0.0
69 2 7.141398715998412 0.3689622894452821 0.0 0.008897824120026146 0.06285042123076919 0.0
70 1 18.761521080535033 14.59263874033278 0.0 -0.017607307576439257 -0.09602266923186459 0.0
71 1 10.405806859852408 16.46441064718687 0.0 0.12769114689258718 0.026918095286091397 0.0
72 1 17.718548731357096 18.385008083502964 0.0 0.015561267786311263 -0.07889114614788743 0.0
73 1 16.551838768260488 12.78205584451614 0.0 -0.03201626097097332 0.024757828610307803 0.0
74 1 18.38389487700719 17.20587962532426 0.0 0.043441796121795835 0.03172782586670726 0.0
75 2 7.048045124770636 10.444371168595177 0.0 -0.07226399406149535 -0.03412485050285117 0.0
76 1 18.486419131425034 10.213027062676199 0.0 -0.018343809851239637 0.06774474795715713 0.0
77 1 10.597763513903299 9.934325151043266 0.0 -0.08061688673920717 0.05494739356530821 0.0
78 2 18.183374171860137 15.51259099207719 0.0 -0.08754380603876956 -0.06800633638075604 0.0
79 1 5.405607136992121 19.643301496962895 0.0 -0.05304070178886738 0.07035424758538075 0.0
80 2 13.244765588706473 0.41184977102032705 0.0 -0.06302345632820201 0.04384809898554842 0.0
81 1 0.9217927013498579 2.3449594814991235 0.0 0.08019417530612616 -0.030427437024516602 0.0
82 2 13.430261126136875 16.912217043847022 0.0 -0.07726120892467409 -0.011807720171382393 0.0
83 1 17.729307634134983 12.114943988868715 0.0 0.12953306742966886 0.006830319018493222 0.0
84 2 0.21833812004101547 6.457676305036141 0.0 -0.041884712804393535 -0.039440127497177284 0.0
85 1 18.53415518741898 7.303670105384934 0.0 0.008705056176090622 -0.03313182103559848 0.0
86 1 12.977412420246829 3.745581246170551 0.0 -0.018124240738953853 0.0566258245392279 0.0
87 1 10.69952880307473 9.227169108808102 0.0 0.02503103970296991 0.09814961820108792 0.0
88 2 15.592524040065015 13.399703693535072 0.0 0.09613624346562215 -0.0877347789725002 0.0
89 1 8.401323133187068 17.898055990536882 0.0 0.06413294907226771 -0.03442634221220255 0.0
90 2 0.5001973126841771 1.3352273497348965 0.0 -0.07623409857326474 -0.013354055653495516 0.0
91 2 6.903717507253446 14.990620201166664 0.0 -0.028752224672919664 0.006232568973665465 0.0
92 1 7.747489346816742 1.3125246894940101 0.0 -0.032978017309228475 0.09603758711642561 0.0
93 1 5.557252090093236 11.194334846762558 0.0 0.08233211476714318 0.045891791185068774 0.0
94 1 11.589330659954266 13.977077391908113 0.0 -0.04030860741526806 0.030105789496622896 0.0
95 2 13.516876847734004 18.17461027036458 0.0 0.050018539642240956 0.02061179419296775 0.0
96 2 3.7514416839081792 7.614016391079162 0.0 -0.052704125744175975 3.813294070052008e-5 0.0
97 1 12.0546302795153 6.023178443450345 0.0 0.003271170313574969 0.05838222801102249 0.0
98 2 19.339097120686958 9.499216148550323 0.0 -0.0027551985861229097 -0.047595633885618466 0.0
99 1 5.9845311583364245 18.52018768591148 0.0 -0.12270955252368132 0.013973112843062309 0.0
100 1 17.497776165654216 16.380021917923948 0.0 0.12518706920610004 0.11399155795355716 0.0
101 1 3.177619628834823 15.272426210812451 0.0 -0.16286362227398196 -0.037128339970657114 0.0
102 1 9.572629651846283 19.683137305859997 0.0 -0.07751481107656757 0.14156103732094985 0.0
103 1 16.335163607228836 8.067066410178517 0.0 -0.010330757136761473 0.009669218417125758 0.0
104 2 15.692022885016227 9.564065070042739 0.0 -0.01713152143034122 -0.09869064388694633 0.0
105 1 15.809405571772539 6.415369124864697 0.0 0.02929530283672807 -0.037019661767876626 0.0
106 1 8.118361811492056 16.818735142227105 0.0 0.0963398751551841 0.01436094409223251 0.0
107 1 1.9276465726750354 9.334430476115175 0.0 0.09641632031137755 0.0026416634132425984 0.0
108 2 1.7281465642134355 8.249307253101705 0.0 0.037462757156362304 0.03481681530103569 0.0
109 1 9.652405754036751 14.022165421577952 0.0 -0.038883315347424285 -0.021444004889142925 0.0
110 2 17.55133483152707 7.885313555154231 0.0 -0.025905104188392952 0.05469544131843614 0.0
111 1 5.147283347183966 19.029167774913283 0.0 -0.08114302360567646 0.07377001551404688 0.0
112 1 10.006242914019133 17.03893446759911 0.0 0.04455604207680842 -0.013941629100421961 0.0
113 1 14.612248582633278 18.251605436069593 0.0 -0.03105960748985408 -0.030331022916440444 0.0
114 1 11.878838952759141 12.241485461877637 0.0 -0.10628886336541346 0.03762778228583951 0.0
115 1 17.15132955708 15.138539166486273 0.0 -0.07081456858774585 0.003585510596865482 0.0
116 2 1.7560857594516495 16.13450574503452 0.0 -0.015952035903994303 -0.027222542041243282 0.0
117 2 0.8128005490225982 9.190029787013327 0.0 0.031047348353694437 -0.040885804219939 0.0
118 1 16.54659063990363 7.452069948629172 0.0 0.016333285942660033 -0.06515325178948723 0.0
119 1 19.26615087994218 7.301578681910826 0.0 -0.002052006520824597 -0.15881268588026645 0.0
120 2 11.197378178446684 5.174583646437213 0.0 -0.0956721436608304 -0.06877573416541648 0.0
121 2 4.314259698100822 12.217675817593996 0.0 -0.07520770810985515 0.02733036175914179 0.0
122 1 0.7766155587406638 19.42121716938112 0.0 -0.08821415769198915 -0.06642392255105932 0.0
123 2 14.195424835241674 6.878909597379062 0.0 -0.029309966549141295 -0.0354524516486813 0.0
124 2 12.021451514551234 4.265148338056479 0.0 0.004202102441121705 -0.022958807608462996 0.0
125 2 12.19496161718245 2.9730623653661374 0.0 0.10487357069081074 -0.08256130373333825 0.0
126 2 9.557575735308804 9.312147523948655 0.0 0.012282111974186688 0.0023542138999435693 0.0
127 2 0.38811735509566153 11.714523118565927 0.0 0.03074224025398664 0.019900164729327926 0.0
128 2 16.86624602777188 17.675103659941946 0.0 -0.01325753934868109 -0.052700698201199325 0.0
129 2 10.345050184398344 6.071181835503563 0.0 0.01344617707725261 0.022894504101563178 0.0
130 1 14.766740443722744 4.587323326350701 0.0 -0.0150062275878911 -0.15588359462413712 0.0
131 1 9.129207791011662 16.032827903054205 0.0 0.06861120592240813 0.01648839647797714 0.0
132 1 10.275968993322746 13.817485958208556 0.0 -0.12400326154665187 0.12329949394132905 0.0
133 2 1.8019445778029535 1.7803774813243705 0.0 -0.023719220101147492 -0.044231951325061296 0.0
134 2 5.87919574161777 6.854683482843861 0.0 -0.011207031299917522 0.003901735084672273 0.0
135 2 16.788984060091057 3.4832742924688023 0.0 0.061315419631811335 -0.019902725816154435 0.0
136 1 7.0902454372559225 16.041097786839856 0.0 0.10944700541170947 -0.01249909704405995 0.0
137 2 1.3054507128187596 7.082885577871992 0.0 0.023372353594078632 0.013640565986762714 0.0
138 1 3.738249328419741 1.3593577689738987 0.0 0.011434181305365164 -0.049943480766443685 0.0
139 1 7.291585876407551 4.790802335276402 0.0 -0.0511417069729449 -0.05985309378101452 0.0
140 2 16.846296372642524 8.998205955333058 0.0 -0.07098269872238745 0.027248653265887695 0.0
141 2 4.590468160131011 6.613674116045628 0.0 0.0677840467110038 -0.06661176723204928 0.0
142 2 10.179233032003054 8.232460398384179 0.0 0.026347073874871448 -0.07411314485098074 0.0
143 1 19.042209457611623 17.1482738753695 0.0 -0.016395895274160285 0.051985140904163465 0.0
144 1 6.726749297773868 11.568079507413188 0.0 0.1587702902172355 0.05406077615315167 0.0
145 1 15.737878537729928 3.755884321400066 0.0 -0.10846581134181231 0.011068844231533237 0.0
146 2 7.640606312927367 8.010534462387097 0.0 -0.08132218517663035 -0.007355628785925621 0.0
147 2 19.09764789958562 0.6928574801215138 0.0 -0.035026005386584236 0.012293092195210456 0.0
148 2 6.641810100875609 12.680201750383798 0.0 -0.03657606713607809 -0.023072603427717057 0.0
149 2 2.777716228206143 18.254511660212344 0.0 -0.11076628089429538 -0.027970053076248592 0.0
150 2 16.724114390136695 10.261361909425588 0.0 -0.021236598172409873 -0.010332181104743939 0.0
151 2 14.624006536287634 17.144267799923746 0.0 -0.017449842434319796 0.009638493833339272 0.0
152 1 11.046429800874021 11.366705938523394 0.0 -0.01123501594245298 0.08910362751350633 0.0
153 2 18.918121956662166 5.667781875730376 0.0 0.03689711384531577 0.05712164055098116 0.0
154 2 0.6645142612508048 12.946266334596656 0.0 0.03764683434242046 0.06075639112722883 0.0
155 1 18.086954285061594 1.4662492341878364 0.0 0.04237177783726785 0.0279489181644518 0.0
156 1 9.719001908955892 15.764184294929676 0.0 -0.0679887116290063 -0.04571440466765518 0.0
157 2 12.441709206483049 14.651371510307207 0.0 -0.03285303245556698 0.00673978396200046 0.0
158 2 10.997639773395903 2.4166627940712013 0.0 -0.0673014333396198 0.011944880333597837 0.0
159 1 8.63362480758943 17.27703876547873 0.0 -0.007152009916486435 -0.0773351432468438 0.0
160 1 16.31804958971047 6.81922404117644 0.0 -0.056815219701198176 0.11181995649279684 0.0
161 2 5.040857167969117 7.7966761269679425 0.0 -0.002749451070164832 0.052932816307755794 0.0
162 1 12.282987765317992 5.38108256047998 0.0 -0.056129996155937174 -0.0565622560610962 0.0
163 2 4.931375243798493 14.198783510800153 0.0 -0.08020433065652532 -0.054685063855653214 0.0
164 1 3.0215507518213918 13.28800884798464 0.0 -0.05587521504988798 0.11681654814022609 0.0
165 2 3.7293141493512736 16.330837678545375 0.0 0.0300825960350844 -0.057358080805339606 0.0
166 1 14.643590420262294 9.107702354128444 0.0 -0.0526204169897751 0.03726603805605468 0.0
167 2 7.9605238246743575 12.672846555505451 0.0 0.0012979169915021116 0.0967153045134231 0.0
168 1 13.319931316925665 11.149736255926337 0.0 0.023987046053821806 0.07346113582570471 0.0
169 1 19.22465882787413 15.933152867862402 0.0 0.09307201453716381 0.044965065768375743 0.0
170 1 8.212654823269645 0.8159583384704375 0.0 0.013459346044061496 -0.052242877673864506 0.0
171 1 14.67382758937491 11.428098729364429 0.0 0.08589579761502976 -0.08526320313407874 0.0
172 1 18.249715562956617 14.143764961038114 0.0 -0.05398712341548297 0.11705549272534926 0.0
173 2 2.706044646268864 0.9323494458301171 0.0 -0.018911939431119993 -0.0064623785787103006 0.0
174 1 3.998100587059809 2.441854726485188 0.0 0.05452052444601126 0.012338798350652023 0.0
175 2 15.771810496940391 1.2894459478416567 0.0 -0.038776870080061886 0.024219857603377193 0.0
176 2 7.111996637389801 6.807241059564245 0.0 -0.017322528624805995 0.08559328477722807 0.0
177 1 7.183866984669988 18.966429519386946 0.0 -0.06332022059096148 0.13266630478577515 0.0
178 1 6.015282582221697 11.783709950062022 0.0 0.04027774970567146 -0.016822104678242904 0.0
179 2 18.007931732197864 3.7968954761544578 0.0 0.043970725156699815 0.02393731600169254 0.0
180 2 14.635914444992567 10.198473996582175 0.0 0.02376100640494665 -0.03760648153180388 0.0
181 1 12.839098763329511 4.999321460192701 0.0 -0.11655859362117278 0.05207734914607665 0.0
182 2 8.906664683770352 8.1556796100726 0.0 0.06994647684745725 -0.015022743533155806 0.0
183 1 13.514827020012302 4.9345084358842595 0.0 0.21806355678592523 -0.004278307836994725 0.0
184 1 11.241497550000034 3.5304039923062125 0.0 0.09964877090154763 -0.029683677579483602 0.0
185 1 15.128495163719819 18.685425843236494 0.0 0.046356041660134135 0.05892693887465029 0.0
186 1 17.24137979724854 12.594031552857501 0.0 0.11964094538484234 0.19325072904832388 0.0
187 1 17.185427769906813 13.249534015270914 0.0 0.1312660053576668 0.1802844854529792 0.0
188 1 9.384954815534629 3.947567333135281 0.0 0.02862220414169708 0.023186616642897437 0.0
189 2 0.3140473313029707 5.206899119640729 0.0 0.06752133531869542 -0.08119061288514028 0.0
190 1 4.3012444753092005 3.0259721659314875 0.0 -0.04425953362184467 -0.008088371696609066 0.0
191 2 6.8600491338344165 9.156255552519058 0.0 -0.014692500355811955 0.00459250908839315 0.0
192 2 8.856543620519657 18.87703613596969 0.0 -0.029409741144184997 -0.03161015861884799 0.0
193 1 1.4973368898941597 11.406918141977082 0.0 -0.006491675617781626 -0.018048647225836673 0.0
194 1 14.672495959593457 14.018483008131735 0.0 0.08703968416808829 0.034039664885101205 0.0
195 2 8.352760658630698 6.93913049607228 0.0 0.05700292081962215 0.009025503713925392 0.0
196 1 11.096512128342361 1.2896517993077947 0.0 0.032148488542844196 0.09186812605130867 0.0
197 1 15.38203625369945 4.309508174647023 0.0 0.20528463608806094 -0.004751378906051332 0.0
198 2 14.237483651526585 19.329172698603042 0.0 0.07667637514432893 -0.011102421224166692 0.0
199 2 2.6343012302137923 17.00668136028267 0.0 -0.05508313431490692 -0.003665054606542491 0.0
200 1 13.763817959285905 11.711832525371815 0.0 0.08781331931782373 0.061852553935498863 0.0
201 2 5.364607604579264 1.6002471589371232 0.0 0.023019618529656206 -0.07953533824396446 0.0
202 2 15.722736692699502 2.6689230044777963 0.0 0.005420380042221458 -0.02827675720716227 0.0
203 2 19.373331711638937 13.714810293621827 0.0 0.04237899822963745 -0.05370589628463396 0.0
204 1 0.2589316163877633 2.4068689900490847 0.0 -0.045987337555505554 0.02183185790542367 0.0
205 2 16.59476859474507 14.184020950235011 0.0 -0.03722398670529015 0.0234658054593203 0.0
206 1 4.2450709586536925 1.8121474089103873 0.0 -0.15127619629509945 0.10190392398006538 0.0
207 1 17.823033960468155 10.260496689683576 0.0 0.047971940847395325 -0.0412461772756302 0.0
208 2 7.308870968632427 3.69644620894755 0.0 0.016679461960563784 -0.05167321900380301 0.0
209 1 15.150830545100296 6.359536626394718 0.0 0.02711379617466818 -0.05918670004471268 0.0
210 1 8.263006422519934 0.10941341415861867 0.0 -0.06445209935936187 0.003673472574746183 0.0
211 1 4.3009816577422155 13.310802508682233 0.0 0.061021074039488615 0.010737409347922026 0.0
212 1 14.079670501287989 4.507781091137273 0.0 -0.0546808534856423 -0.01572727817075577 0.0
213 2 4.32022336286371 15.278122346727574 0.0 -0.012408806062449589 -0.07919409114850881 0.0
214 1 1.700159798329312 17.816031148487106 0.0 -0.038593047013650156 -0.05118587837639508 0.0
215 1 11.961855262481384 6.72732354416136 0.0 0.03126114177133822 0.05144818048973974 0.0
216 1 6.514443915292655 19.18121042979672 0.0 -0.021241258534299975 0.1374656539058395 0.0
217 1 13.645865093766156 3.9698145210447313 0.0 0.07854743136092557 0.006445159261669753 0.0
218 1 1.3878897930736036 19.133000567849354 0.0 -0.045399351065218224 0.014790691519907938 0.0
219 1 18.312422557230764 2.725440599107645 0.0 -0.10472309236184221 -0.11433214066982515 0.0
220 1 10.659097051424588 13.249609100607657 0.0 -0.013047770141638227 -0.0009006743190585211 0.0
221 2 3.793083326353939 11.117353603638712 0.0 -0.02276473737415339 0.003138883831300661 0.0
222 2 7.8308798714860535 11.46235282023804 0.0 0.037428126014241704 0.02098710700457106 0.0
223 1 12.556710216125621 12.176042589244883 0.0 0.04185175816805679 0.026903472006462283 0.0
224 1 7.772903944425588 18.629926127158658 0.0 -0.04402664863863874 0.07903834300652145 0.0
225 1 15.330983198937227 19.34120813247891 0.0 0.045405004637451084 -0.0008133642562008574 0.0
226 1 3.6665301606683864 13.111733998925407 0.0 0.05870590858310968 0.009182432660548882 0.0
227 1 6.218771672239926 11.14231106749336 0.0 0.019030682199708264 0.0008373833218838727 0.0
228 1 5.392556099103166 10.035671356523949 0.0 -0.16128988390403692 -0.06219208364455546 0.0
229 2 3.8136627548266775 17.557613931596876 0.0 -0.017239707012561882 0.04488725678992072 0.0
230 1 7.483097700631293 16.58232206678781 0.0 -0.03476323890512294 -0.07721066696940017 0.0
231 1 9.745281762936624 17.664595928624433 0.0 0.060973317096935785 0.048573297121777805 0.0
232 2 10.610050612691591 0.28565936989946095 0.0 0.01351446554292881 0.016875323454407225 0.0
233 2 2.4529702670650773 19.44160196548109 0.0 0.04487880748273374 -0.052690441556589016 0.0
234 1 0.12009005777391235 16.13121832303598 0.0 0.13137407541098395 0.07628512478260742 0.0
235 1 16.844802981569895 16.54205726188041 0.0 -0.03751138262848528 -0.04584722217951377 0.0
236 1 2.788832855175556 15.849455210379194 0.0 0.08610711240137801 -0.061025412662730816 0.0
237 2 1.3543025605116132 14.944683722516084 0.0 -0.01669600557533566 -0.043344774825657864 0.0
238 2 17.77958195259425 5.050425262084603 0.0 0.034108969648438875 -0.01925178795820411 0.0
239 1 13.075219343284033 11.763600785294837 0.0 -0.17642904797052641 -0.07159237471277378 0.0
240 1 13.0038141051458 10.505420803465974 0.0 -0.008088583675951064 0.0733666699987386 0.0
241 1 4.373235656166476 1.1296485265082836 0.0 -0.047579539907584074 -0.0071475677500309484 0.0
242 2 18.905716615129567 8.31971324489304 0.0 -0.023126026493814504 0.026496623565002944 0.0
243 1 17.634841675739978 14.561117932462333 0.0 0.026925662473234926 -0.019890106616618962 0.0
244 2 19.072120475341777 4.455070424095432 0.0 0.06196144019261762 -0.018107664008633336 0.0
245 2 11.316490707158666 18.989686209067766 0.0 0.11783570335730711 -0.004400024706928602 0.0
246 2 1.980354946302909 12.972093415233159 0.0 -0.03378920263215091 0.006179951005097853 0.0
247 1 11.097852918665957 16.680077576139617 0.0 -0.03578125545161035 -0.09652399498371561 0.0
248 2 11.139012725670653 14.975777754216768 0.0 -0.03151680167525845 0.004115426852919901 0.0
249 2 12.628509407089894 19.116473603669625 0.0 -0.08348631104423399 0.027705696992060037 0.0
250 2 19.407071524911235 10.75374140076812 0.0 -0.005377129750557371 -0.09277231112675009 0.0
251 1 7.8277296787963815 19.299840614096173 0.0 0.12283273672488147 0.04298818598105029 0.0
252 2 14.652393950926978 3.4800411013372736 0.0 -0.11150239209537972 -0.04023538759220944 0.0
253 1 1.3891827533001946 12.083009306803843 0.0 -0.006867025071401962 -0.1729791987750129 0.0
254 1 8.934731154857273 11.35839496988259 0.0 0.07594324507052237 0.07055413670049383 0.0
255 1 13.124385371287076 4.392021284117361 0.0 -0.005205091886105016 -0.08357158413279886 0.0
256 2 3.7244453131219037 0.22010030005400377 0.0 -0.033678204902086076 0.1195572920026144 0.0
257 1 14.466392799103879 13.366527759038636 0.0 -0.008226387033266546 0.0664427807540575 0.0
258 2 1.5011788827012071 0.5018232242521226 0.0 0.01310943776284292 0.05386394428499627 0.0
259 2 8.454642801983464 4.590282619707705 0.0 -0.05699366441791698 0.01165965332199302 0.0
260 2 16.410724258679817 19.73552128377615 0.0 -0.0964692443564815 -0.11176757367809632 0.0
261 2 2.360858140107875 14.185379267321865 0.0 0.013109361582631339 0.06990238332594734 0.0
262 1 8.911473308146228 0.8693991817940915 0.0 -0.13630121119822106 0.01399371025953263 0.0
263 2 9.691018443212043 2.807056479277698 0.0 -0.03216629678820157 0.04210046287543245 0.0
264 2 14.593439296484048 2.1172323573602614 0.0 -0.024410156087172605 -0.014424977566030235 0.0
265 1 4.885086696897648 11.290392288532406 0.0 0.048952570145054455 0.03780976632335088 0.0
266 2 13.162199382691922 6.036225958338498 0.0 0.01562647443913754 -0.04332316952861596 0.0
267 2 15.855025329763198 17.05824750288501 0.0 -0.03358728876272111 -0.07143107701501869 0.0
268 1 11.436846787332113 6.261314171762519 0.0 0.02820311171540804 0.11201107298516179 0.0
269 2 16.754946554374968 11.617763876752969 0.0 -0.0014484160109516002 0.028298244441921108 0.0
270 2 13.549192439279425 2.859277744689936 0.0 -0.055636393496964 -0.03483206678957231 0.0
271 2 8.605233841983397 13.731814870473709 0.0 -0.018785437188857564 -0.00978935786737764 0.0
272 1 2.42340497355759 9.790311388040433 0.0 0.05671370464416656 -0.018250385579961333 0.0
273 2 15.644589568210536 10.90221926142066 0.0 -0.032295072023559336 0.03871358881435803 0.0
274 2 9.61610497223916 12.913815725993565 0.0 0.0016986749318544136 -0.023905628264327565 0.0
275 1 4.921228593133392 5.5848132073675565 0.0 -0.04501769606693111 -0.005159559415985004 0.0
276 1 4.783291438524294 0.5699258295965068 0.0 -0.07673155800513952 -0.05709401873364704 0.0
277 1 5.324540647541545 11.81714713830999 0.0 0.06344507869122891 0.020771247797145932 0.0
278 2 18.86150621077118 11.889298021960164 0.0 0.04110012094847177 0.014971624452091348 0.0
279 1 5.489288536176998 5.189252899079345 0.0 0.09866209200545674 -0.0784992920766911 0.0
280 2 8.517016668760236 3.2856577809950775 0.0 -0.0143394757844993 -0.00935742140618136 0.0
281 2 13.540602936145248 12.755256347493916 0.0 -0.0007147133047751238 -0.03266455239524453 0.0
282 1 19.64142891591588 17.45649934300173 0.0 0.02243941858039334 -0.05781139266324601 0.0
283 2 12.154259053598885 17.97961646225242 0.0 -0.014976089874039571 -0.02076564902023813 0.0
284 2 6.5621518909606396 5.660049618823459 0.0 -0.0748583873254353 -0.06106478433067596 0.0
285 2 4.199971840243488 4.11867873414018 0.0 0.031162731899091013 -0.016322512829174022 0.0
286 2 1.651008638366573 4.600690858646441 0.0 0.01950834314350269 -0.0016050918194170415 0.0
287 1 1.5452835878296074 3.4787937920626693 0.0 0.165897181594168 -0.021768024137421915 0.0
288 1 15.139107882626693 8.586756685003927 0.0 -0.1126898141590761 -0.07197947163877315 0.0
289 1 4.555991969176938 10.356780272085146 0.0 0.017118912819693913 0.02661103058041164 0.0
290 1 6.668579348148191 18.500528243914047 0.0 -0.0703239236422268 0.14505883339027775 0.0
291 1 15.908778910413655 18.17936232589722 0.0 -0.0026351649631132295 -0.07181051899295991 0.0
292 2 12.114180074383656 11.16056005321388 0.0 0.0531493348659299 -0.05580196692188642 0.0
293 1 6.451291375213673 1.2974278370206145 0.0 0.033533749481003364 -0.05210797520500602 0.0
294 1 15.339403682042676 0.2493111889868591 0.0 -0.030648091203046544 -0.1776729802808094 0.0
295 1 0.4417574895195101 0.252475156917966 0.0 -0.167145446088956 0.22596994775245013 0.0
296 1 17.474529418351327 1.1878982333342971 0.0 0.0548015499232504 0.08523139110314976 0.0
297 1 14.214092822000874 16.134332326802227 0.0 -0.17394887290282107 0.06040374810573362 0.0
298 1 2.1948810175152564 3.6335520111803996 0.0 0.08657124305956708 -0.006971158557447708 0.0
299 2 2.5251212693002634 10.886878558042918 0.0 0.0208262158573374 0.12364924377763573 0.0
300 2 7.827894913454907 5.743340822598034 0.0 0.013949147673909987 0.0755360707243843 0.0
301 2 12.186755366039469 9.079198570569254 0.0 -0.038865255954971784 0.07371643676048836 0.0
302 2 12.112212496282714 1.698853046921583 0.0 0.14461628411361943 -0.0031879975582871545 0.0
303 2 4.046816962287199 18.768901166693276 0.0 0.062392789691920414 0.020539838973277602 0.0
304 2 6.000487564868122 3.6069875186392175 0.0 0.02813168751920582 0.024366724996847285 0.0
305 2 15.580001761600375 12.150650422415326 0.0 -0.059162792360924664 -0.015084426615092659 0.0
306 2 0.023671860141805848 14.992321769229887 0.0 0.03935511813644881 0.03852688167604775 0.0
307 2 3.8521636194248314 5.456685452901253 0.0 -0.10918965748202665 0.057499691674392284 0.0
308 1 10.5920560834646 3.4292236411603767 0.0 -0.12463176349842074 -0.02661041221337988 0.0
309 2 10.022224795338527 11.72543499179522 0.0 -0.059614508534180245 0.026308662497653127 0.0
310 1 11.179204313191208 10.354697444022301 0.0 -0.02752056951955318 0.003906463162681961 0.0
311 2 15.516482504195917 14.727151154932427 0.0 0.013190239123166686 -0.06230008823403941 0.0
312 1 0.6718754962634612 2.946891951040516 0.0 0.08239501885758246 0.11451954303367476 0.0
313 1 8.949623136668379 0.2071382858023036 0.0 -0.12182156315443429 -0.10026561899069732 0.0
314 2 9.649273360326454 10.525643765857643 0.0 0.02187376592140548 0.04942977165403258 0.0
315 2 15.398093243154069 7.460216549968598 0.0 -0.06792445150693541 -0.0016182002418741062 0.0
316 1 18.86819931339489 16.502184706648 0.0 0.04489506425074794 0.12620483788746922 0.0
317 2 0.5489003435866509 4.002922986194788 0.0 0.035761811421574745 0.05132725473649732 0.0
318 2 6.3766671361520775 2.3998405915865804 0.0 -0.07460252299433 0.05662125629352063 0.0
319 1 15.774695528509636 18.83602485814577 0.0 -0.06612654156251224 0.006391528233677803 0.0
320 2 7.351958103523503 17.644792337993664 0.0 -0.030015601334206513 0.05825471800111767 0.0
321 1 2.456674499097171 15.265094859419234 0.0 0.072824011500869 -0.07181180399478809 0.0
322 1 8.815021971243342 16.621840166816135 0.0 -0.10113864344661506 0.014189463450585497 0.0