ITEM: TIMESTEP
0
ITEM: NUMBER OF ATOMS
400
ITEM: BOX BOUNDS xy xz yz pp pp pp
0.0 19.7609 0.0
0.0 19.7609 0.0
0.0 10.0 0.0
ITEM: ATOMS id type x y z vx vy vz
1 1 14.132503177903896 6.8070373745513555 0.0 -0.20487136506152734 -0.051430376793500696 0.0
2 2 4.832764629083636 6.649909288087654 0.0 -0.004347414116885023 0.007799862003657887 0.0
3 1 0.43236281819952826 6.234992428187963 0.0 0.05007797818803739 -0.1295530264650618 0.0
4 1 3.415863577656799 5.7241455323210015 0.0 0.06148664192034231 -0.0028634838744539368 0.0
5 1 0.22135291951128616 12.862474412774953 0.0 -0.0628844154800793 -0.14211547234742986 0.0
6 2 16.11664005622345 6.181922058806168 0.0 0.05148137948031488 0.03989851997489619 0.0
7 2 9.507915664640983 7.010893890394662 0.0 -0.012275608468866835 0.019867909194122502 0.0
8 1 14.799827676996857 4.143886053356066 0.0 0.035311064024841216 -0.01663392623705917 0.0
9 2 3.4665725246184675 15.701232114854202 0.0 0.04069483246612208 0.006067033994510078 0.0
10 1 13.699823772088672 6.29643498544298 0.0 0.04666668017163127 -0.015666482806760744 0.0
11 2 18.46683464721958 1.0578882046524152 0.0 -0.011627375308461968 -0.003857922869524783 0.0
12 1 10.158835481641391 11.193000692247713 0.0 0.007953150773231747 -0.031352690994199135 0.0
13 2 12.049385980556465 15.766571279301042 0.0 -0.03788797716472152 0.055340860594404136 0.0
14 2 13.01248756848464 13.177695307143944 0.0 0.05968873404795086 -0.04576192611660355 0.0
15 2 19.318066058916294 10.483517305027235 0.0 0.11099681030659345 0.0046355547559134526 0.0
16 1 5.022277346632903 1.1376472834983526 0.0 0.01719562471014788 -0.021263940680590954 0.0
17 1 6.630450267008274 9.478559820230966 0.0 -0.05560107540963122 -0.030685028287110186 0.0
18 2 12.009999933671532 13.921232000931715 0.0 0.02353606988323248 0.0859809364137974 0.0
19 1 13.442009981144585 2.572744439308464 0.0 0.10158505925070854 -0.07085135595983293 0.0
20 1 16.71766089001991 4.383165740730698 0.0 0.03515993182801528 0.0637679459611683 0.0
21 1 11.501903293774536 0.14103707133098262 0.0 0.09869397955797984 -0.00657089520418547 0.0
22 2 7.5549758118737795 1.0209677129590724 0.0 -0.09528742213262169 -0.09760607308876935 0.0
23 1 15.087456815754678 9.320027874828604 0.0 0.11671025738094463 -0.023539173366103686 0.0
24 1 1.2413762145296685 15.008757750046247 0.0 -0.026785093142521522 -0.008441151078105509 0.0
25 1 18.27323373845573 9.688635559115337 0.0 -0.014122565374201024 -0.09467635656497504 0.0
26 1 5.260727112202769 9.47831946979012 0.0 0.10578559802872829 -0.036446731667054755 0.0
27 1 11.491998599799176 5.833418919230924 0.0 -0.10054970158488828 0.047852752975238076 0.0
28 1 5.404462302270637 18.476579694552058 0.0 0.0024507719693363304 0.05956466693492937 0.0
29 2 16.484133069039064 2.674265563414458 0.0 -0.006833038465166215 0.03818588713475726 0.0
30 1 17.983248884999888 4.614046592849013 0.0 -0.13785152982365362 -0.021303110207627467 0.0
31 1 11.112541726236786 1.2333768974336154 0.0 0.11802045803349814 0.0998200187954975 0.0
32 2 17.25090880546456 19.112461945371045 0.0 -0.013143361856744033 -0.07194214738111107 0.0
33 1 18.91710710178423 9.461963073946057 0.0 -0.03489862222846417 0.041892172882601775 0.0
34 1 13.44167758878816 8.83585215098507 0.0 0.032096831933900276 0.015847360487108934 0.0
35 1 17.873455904909623 17.0284561193054 0.0 -0.11452858078740535 0.07450195946375957 0.0
36 2 16.080779038407343 18.565165653507616 0.0 0.0252665559427589 0.036726003804732794 0.0
37 1 13.196547848562203 10.13861871004385 0.0 0.021057703422306256 0.1258114945779458 0.0
38 2 1.3555567605465522 7.64873121912715 0.0 0.024764938594018005 0.05970233343204714 0.0
39 2 8.521660687912627 3.2368153634595798 0.0 0.041594679611914834 -0.075418556480464 0.0
40 1 13.425208124813064 10.796165793724809 0.0 0.07995105918444816 0.08120426557844852 0.0
41 2 12.931117304936446 14.82043598360567 0.0 -0.07795030967130492 -0.00522373765130325 0.0
42 1 13.055845829164088 2.0377335710186264 0.0 -0.09718125404150858 -0.018313692022082315 0.0
43 1 0.5753353963301913 0.12850262706922055 0.0 -0.150921685260754 -0.04246637257156627 0.0
44 2 6.3736280935978336 8.302241059148718 0.0 0.0068493661713078646 -0.03258123400646402 0.0
45 1 5.458756308055484 8.854015247607995 0.0 -0.054816967473237825 -0.03367392942515531 0.0
46 1 19.08922431204263 1.9541268934952813 0.0 -0.0001652667895497836 0.020119351552009376 0.0
47 2 9.724137756162651 3.63375841165118 0.0 0.032872955827985065 0.00395689910928655 0.0
48 2 14.740000182285483 16.50608398173354 0.0 0.007347293741626766 0.07887754923144784 0.0
49 1 9.572625542709746 0.1291637096905176 0.0 0.03812515728338035 -0.09744694863994144 0.0
50 2 4.214953634987403 4.190516896293849 0.0 0.11225296947928264 -0.034694805973457525 0.0
51 1 10.411832742508642 13.415635622641386 0.0 -0.0498351716567616 -0.07920622254602463 0.0
52 2 7.346463659589696 7.4827768755826956 0.0 0.006458718624086064 0.05147633077203685 0.0
53 2 11.934992452344957 8.105374439634165 0.0 -0.007937751335092596 -0.07368460494644248 0.0
54 1 11.553048190466255 6.503450291164021 0.0 -0.003812522037704927 0.05231008239506979 0.0
55 1 4.864600679084394 10.006061998350724 0.0 -0.0659687069079239 0.02887240704601587 0.0
56 1 10.80103276134405 1.8558861047980661 0.0 0.05392746477254954 -0.06039944209616227 0.0
57 1 8.086918981804974 11.572321187371136 0.0 -0.09690712684335005 -0.08026423129304971 0.0
58 2 2.980036440170214 11.978082098869757 0.0 0.021010517772405642 0.006977074518668859 0.0
59 2 9.307952241032956 5.684751250278962 0.0 -0.046477913387194966 0.043179542306454634 0.0
60 1 13.034395798305214 4.321015949334186 0.0 -0.06828819529071549 -0.11219383458456642 0.0
61 2 15.814740102650912 15.814785717565082 0.0 0.03078554698126801 -0.059422681346917236 0.0
62 1 1.9632407277562767 1.9808836882000964 0.0 -0.043093904926927225 0.04251206426677543 0.0
63 1 18.094528805208956 3.9651826368513987 0.0 0.00017352589461689226 0.031327873472015995 0.0
64 2 14.989047827234778 19.285621396088292 0.0 0.022705352170567836 0.0026170790126559267 0.0
65 1 10.900327661682718 8.577144186280247 0.0 -0.2059117119300905 0.001002046991489518 0.0
66 2 19.337110271212513 17.791089093358494 0.0 -0.03190007046403417 -0.0017364568002769423 0.0
67 1 4.803490078272991 8.967856183995789 0.0 -0.11956690081505189 0.006879576940103269 0.0
68 2 4.4490989564916354 2.0666357258015364 0.0 0.027143573219227154 0.030182250780959107 0.0
69 2 17.167214479025176 17.8755667415781 0.0 -0.027293784058245823 0.1385832919299025 0.0
70 1 0.019852303567583277 11.535859381641988 0.0 -0.09226634091330205 0.15538836561993125 0.0
71 1 18.00999344099593 14.862027389901277 0.0 -0.08344327015299409 0.019576753597143476 0.0
72 1 13.522869875740712 3.863750521305755 0.0 0.002467547326185277 -0.1596964432754804 0.0
73 1 3.493017633813483 12.982093227423288 0.0 -0.05023835445243257 0.068599532683197 0.0
74 1 14.647767809091922 8.844916261267127 0.0 -0.005027589726937823 0.04645166320316593 0.0
75 2 10.034603097659604 1.0798286479553514 0.0 0.029542878405993143 -0.06769682792715238 0.0
76 1 0.6016661209300047 11.888426820109956 0.0 -0.0015434468443020774 0.02403758171807684 0.0
77 1 9.811125325311988 18.573912648668863 0.0 0.07476800974503847 -0.01542821055139137 0.0
78 2 14.266936124773872 12.761498054187443 0.0 -0.06524619112776198 -0.11055003644849856 0.0
79 1 18.432999667886182 2.153449056290556 0.0 -0.03787985743383371 -0.018703614905680108 0.0
80 2 6.139203066296116 12.804008065359893 0.0 0.00866888146847848 0.00910391930965891 0.0
81 1 10.933575600314365 2.515990008162588 0.0 0.14919469913047148 0.08752955482141571 0.0
82 2 18.75861909155389 11.847857106870098 0.0 -0.028737665923826653 0.02215463182598726 0.0
83 1 15.394720564944008 2.6451875326355556 0.0 0.01764428054771673 -0.07865024128392403 0.0
84 2 0.20736965865612045 14.538557734319287 0.0 -0.021527844042337152 0.048129063132565264 0.0
85 1 15.778702083132432 16.926697601058684 0.0 -0.047855721484317264 -0.07072498507271743 0.0
86 1 11.362375118301623 9.065618699333863 0.0 -0.001954656590938991 0.06428059292543388 0.0
87 1 12.968265616931767 18.09996158618312 0.0 -0.03051553911235682 0.06273655880774656 0.0
88 2 7.586650019561749 4.094448813795956 0.0 0.03652359317304364 -0.013181325477886335 0.0
89 1 5.777704619897868 13.815051943179151 0.0 -0.026391628756151055 -0.08089388205711935 0.0
90 2 15.19985756961138 7.097940594350289 0.0 0.04359124224384522 -0.012967003947497634 0.0
91 2 0.8887160859146259 5.189484795498918 0.0 0.04638871849187355 -0.033658375054639963 0.0
92 1 19.662190916044892 13.457319235402034 0.0 -0.0002545266838924066 -0.06711023785742663 0.0
93 1 11.87502744440035 4.575276952599806 0.0 -0.09168156532124772 -0.10530482393187197 0.0
94 1 13.45637734508658 1.4257809711299396 0.0 0.014067509353917066 -0.03037068467197849 0.0
95 2 7.5739348422099075 17.74606599550705 0.0 0.02643064905481974 -0.07575230749838377 0.0
96 2 5.122809896512826 3.299337806765971 0.0 0.0023961290749055343 0.009338998046391468 0.0
97 1 9.61815345276753 17.927550725510745 0.0 -0.07251334788261946 0.1923990465988381 0.0
98 2 3.099681973564247 1.6916023687563029 0.0 -0.04447044274171943 -0.08718776846178437 0.0
99 1 12.786224829299142 11.000865011323151 0.0 -0.009206475451996099 0.04439034896895057 0.0
100 1 13.115294609756727 19.364889709454793 0.0 -0.07694324406694837 -0.007702692549062189 0.0
101 1 14.535150353421866 1.9675489797469237 0.0 -0.15620686166759531 -0.15018318890569612 0.0
102 1 12.546248403124975 10.386263605631026 0.0 -0.1660197031837084 -0.143544150260842 0.0
103 1 4.227324043208339 10.271993377769444 0.0 -0.019973499771414466 0.10536634348368265 0.0
104 2 2.7614473729546525 9.380908353446806 0.0 -0.03934401884947603 -0.1147636822788821 0.0
105 1 13.389819728413109 12.12820674183732 0.0 0.005458953787595402 -0.07725608475497717 0.0
106 1 15.232432306074687 1.9960462677474493 0.0 -0.04571601779207165 -0.05223583617502902 0.0
107 1 7.519368946611928 10.52935838642523 0.0 -0.009057914905613447 0.07689302072943545 0.0
108 2 8.623898178208014 9.294551132617682 0.0 0.06723985947489187 0.004382135487471131 0.0
109 1 1.752575208517521 0.6679035448696202 0.0 -0.0845772010360799 0.07224670872620566 0.0
110 2 8.107963322184556 13.202624793657385 0.0 -0.0408367297253275 -0.0656492312901419 0.0
111 1 11.98580882785493 7.013353797090678 0.0 -0.034671409964813465 -0.07751152745221865 0.0
112 1 4.425110101571384 9.517998864006444 0.0 0.02271491441663073 0.07562445180284003 0.0
113 1 12.767042544434972 2.7191108589470936 0.0 -0.1971201728624966 0.08144564177969581 0.0
114 1 14.047059625882387 9.125599803791413 0.0 0.025890834520528393 -0.04380482931039897 0.0
115 1 11.75719624302435 5.224029477316272 0.0 0.011095053252784728 0.08909849014002903 0.0
116 2 10.876577775205918 4.203595563988553 0.0 0.06927145974311441 -0.12437127779878701 0.0
117 2 11.582026401854746 18.81093634885912 0.0 -0.07861220393734783 -0.013365187499698249 0.0
118 1 6.885944346912868 16.889103457424792 0.0 -0.01069724677781779 0.044839559768878705 0.0
119 1 13.124208697460151 15.905437486941354 0.0 -0.07051623423853708 -0.03953188073196727 0.0
120 2 6.870815017696395 18.82763158712282 0.0 -0.008493773920667672 -0.06237980017811914 0.0
121 2 14.365363889009602 10.20493276250801 0.0 -0.025833309996561086 -0.03232360633314882 0.0
122 1 9.624823023385893 8.110674602291285 0.0 -0.08437058085953893 -0.11509093491174859 0.0
123 2 1.302739036993917 16.94656433158583 0.0 0.09988350802514259 -0.04328541726847333 0.0
124 2 19.146264375913855 6.689759531014944 0.0 -0.033850921285909795 0.028181028828443214 0.0
125 2 15.58518003525146 8.28817075043769 0.0 -0.02207742058943957 0.014166432768469536 0.0
126 2 0.4993909873826041 3.9119414998048274 0.0 0.01741572614397058 -0.03774531361231191 0.0
127 2 18.49077039821532 18.711096638101054 0.0 0.014788012425710447 0.09544017969721381 0.0
128 2 11.338491014890042 12.817347299024462 0.0 0.03286936638726612 -0.03659366428085178 0.0
129 2 3.7804467185448734 7.370442062295394 0.0 -0.0581342079482658 -0.019538960240621454 0.0
130 1 6.105157084491627 2.6978807463188486 0.0 -0.1045941954856692 0.027607513054781634 0.0
131 1 10.558754228292837 10.638337980700232 0.0 0.0798002101849739 -0.04371688181751262 0.0
132 1 10.928232323758449 13.83620698356543 0.0 -0.040897676580522575 -0.018377675065678976 0.0
133 2 16.26127924794693 14.103739023375091 0.0 -0.058413137186359564 -0.07515762007130201 0.0
134 2 10.4876109210183 6.231619922908721 0.0 0.012710176285960028 0.017616453736615967 0.0
135 2 9.356489360572935 13.533344510280907 0.0 -0.029042781379097295 0.006937636544309663 0.0
136 1 4.1722916668966485 13.16961644635616 0.0 -0.09067993223769023 -0.08542310393004965 0.0
137 2 18.138802141927087 10.78098430452729 0.0 -0.026319995773943894 0.03421226298072144 0.0
138 1 5.576775894763504 2.292775144587261 0.0 0.005969674523022553 0.08887929178888432 0.0
139 1 16.462930238433316 16.84509696816664 0.0 -0.01282395608634108 0.09893899724006137 0.0
140 2 1.5176461731050002 6.351055625873447 0.0 0.03361440378150978 -0.007107117215420305 0.0
141 2 11.18854415725672 16.70750747951579 0.0 0.11510266485292056 -0.002451787354432689 0.0
142 2 2.3667878484089715 15.13458644421404 0.0 0.013020655096499674 0.014183343789952771 0.0
143 1 8.31016761831312 14.827337509527016 0.0 -0.023452824955640376 0.19332883020780212 0.0
144 1 19.290066525926555 12.86989117787337 0.0 0.08603793930321291 0.16837011313848507 0.0
145 1 15.746808665705165 9.354541065863042 0.0 -0.02787390335522191 0.11388297771121526 0.0
146 2 19.39077115767732 5.50744275092126 0.0 -0.02756229919792349 -0.02015625675287864 0.0
147 2 8.670852081469485 18.502672481893455 0.0 0.0118911165355443 0.05141671200553031 0.0
148 2 15.27695691061881 13.41683484217424 0.0 0.004440222824993486 0.039790862963506826 0.0
149 2 0.9904825809011217 13.62063710883811 0.0 -0.012961742610240934 -0.046447532593564676 0.0
150 2 10.34977276503041 9.560091698114734 0.0 -0.12956397124862773 0.0843067144438921 0.0
151 2 4.989171443648625 7.887760327859363 0.0 0.05598763106373302 -0.07411419535138185 0.0
152 1 15.41325978023194 9.919097013268862 0.0 -0.028993619780575977 0.008761294447126616 0.0
153 2 16.45566997500947 11.252109984864726 0.0 -0.09147422330284556 -0.0361033926138899 0.0
154 2 13.921444552545207 18.657052915661342 0.0 -0.0382889218100235 0.07921926511710198 0.0
155 1 17.431496227376478 4.202879557983825 0.0 0.018199002587929433 0.16878503884939944 0.0
156 1 7.196109332225266 12.55215526498638 0.0 -0.0897184370503568 -0.07852855541492551 0.0
157 2 15.065111786761648 0.9075659100918811 0.0 -0.04700851405380545 0.03649285045335288 0.0
158 2 8.301007929348739 6.603194642221098 0.0 -0.07094329595109768 0.09556277442986974 0.0
159 1 9.341842582542546 10.13209262075254 0.0 0.1897775182446751 0.08460155818942666 0.0
160 1 9.575078176359442 8.765214327909787 0.0 0.08406177055795268 -0.09759196657534584 0.0
161 2 2.0140817832420153 11.089981460395151 0.0 0.04841082037476624 -0.03027053438847245 0.0
162 1 13.263437536274498 11.463877049536231 0.0 -0.008680920603215944 -0.06792063563517511 0.0
163 2 5.89403784612838 10.380913569123324 0.0 -0.01939228476468675 -0.05542846839338888 0.0
164 1 5.949473821004616 9.300016627189553 0.0 0.0024489431517336602 0.02737004615005724 0.0
165 2 17.51818010878109 11.876636440246001 0.0 0.044169663273787386 0.04021373737573009 0.0
166 1 6.919594233891664 10.800836438994724 0.0 -0.11963069775188008 -0.08426615604865471 0.0
167 2 4.994572752665592 12.339918268551523 0.0 0.021313568730158515 0.016465233250818105 0.0
168 1 16.905087619801765 3.7316437461607097 0.0 -0.05486787421988885 0.04192320778283423 0.0
169 1 10.36640427235728 5.169422367695244 0.0 0.012258966289676598 -0.031559527904231145 0.0
170 1 6.029064750778353 15.099914269977885 0.0 0.024551957786629636 0.056314801822053215 0.0
171 1 17.202646997178647 16.808847298694864 0.0 -0.011936541616712667 0.03703784713409521 0.0
172 1 10.390497935224872 19.028823834999137 0.0 -0.05266124893020486 -0.06829791748238684 0.0
173 2 12.434744440849125 9.291397201282654 0.0 0.02392222484747143 0.007354089326685106 0.0
174 1 18.449964564044517 8.976453385108178 0.0 0.008262205850051822 -0.004366963188410096 0.0
175 2 13.074805330947497 7.194799714697775 0.0 -0.06349257758446601 0.09049828558769324 0.0
176 2 18.99807855349902 15.36251702309779 0.0 0.007371532359299229 0.006377743954983615 0.0
177 1 8.99202322465904 12.520738830166188 0.0 0.1324490822561708 0.02272416184810485 0.0
178 1 1.5164843685036156 15.815496285057224 0.0 -0.09161043381392688 0.1395113080814988 0.0
179 2 16.56048913095575 7.453982157120052 0.0 -0.03739437525531237 -0.08277166988498773 0.0
180 2 0.1866316637676092 1.1994504504077963 0.0 0.05698604668375133 0.0833700428256351 0.0
181 1 10.200771826327733 19.701381011435984 0.0 0.0447568376596721 -0.009627666763664153 0.0
182 2 11.172049821642396 14.896096901063027 0.0 -0.0028119003353662365 -0.09275934248772061 0.0
183 1 1.858206811515775 8.708354479057542 0.0 0.034701457411368375 -0.08703564023465683 0.0
184 1 0.42523257322993624 19.213219363229936 0.0 0.053011346321350426 -0.05431307151454903 0.0
185 1 9.51701877766203 11.414313489721003 0.0 0.12572424138559748 0.03432132587827605 0.0
186 1 0.4246443163792269 9.79726945804 0.0 -0.004710354922652793 -0.006123380134985122 0.0
187 1 5.803387814870165 19.024998187626746 0.0 0.058587367957388586 0.005361557087225313 0.0
188 1 7.8495984449341485 14.34047690547083 0.0 0.15252191767620893 0.09238064613559066 0.0
189 2 16.92530731586443 15.149335642941395 0.0 -0.057030431770441696 -0.010209313010654551 0.0
190 1 9.081877291501241 16.10319681568156 0.0 0.02217732822356381 -0.0651614891055943 0.0
191 2 2.3741478203451822 17.723187170800962 0.0 0.005284571823710726 -0.0996810622727603 0.0
192 2 16.182149105208588 1.453115635090963 0.0 0.023871304069080564 -0.03708396545022614 0.0
193 1 15.705766282997601 10.489865005124248 0.0 -0.10981544855002695 0.031242557068389177 0.0
194 1 13.63431543147283 16.353668536006737 0.0 -0.012954051708422929 -0.03185866520838861 0.0
195 2 2.444240126195826 16.425018315777155 0.0 -0.006256375772460636 -0.052725527221719366 0.0
196 1 19.61236578839001 9.397208962047097 0.0 0.08634505632862714 0.098110807100864 0.0
197 1 3.8014638951963233 9.729435964146207 0.0 -0.06218101446377598 -0.06264026779508308 0.0
198 2 12.579134615827593 5.9970315527792355 0.0 0.009347493203462533 -0.035793809502147604 0.0
199 2 8.771402447004359 0.8352466376977944 0.0 -0.011978651590955779 -0.0024922633945987293 0.0
200 1 13.834847863578451 2.033949507730385 0.0 0.06594907973098832 -0.08355092044909014 0.0
201 2 5.8293063356995845 16.495078451729732 0.0 -0.024499446389868916 0.00778426078829505 0.0
202 2 18.908971955252824 16.63295175315498 0.0 0.08646696350253255 0.030609798512199422 0.0
203 2 5.784613886664348 5.840994479531112 0.0 -0.13137818314032496 0.014973056611870029 0.0
204 1 9.896789566355181 10.566043215552638 0.0 -0.042680736166340334 0.0485535170640715 0.0
205 2 17.70534684799479 2.9846753583383707 0.0 -0.04719015690903407 -0.015530408031554557 0.0
206 1 3.7004873049791236 19.396015534642398 0.0 0.022948101575630722 -0.07679953852208786 0.0
207 1 18.749247771266607 8.321837169079128 0.0 0.03614078084764667 0.11310681192263349 0.0
208 2 6.049104371232119 7.10159928532003 0.0 -0.004094902556450266 -0.03124286179804857 0.0
209 1 0.2842402363806629 2.825567488627581 0.0 -0.05709109262413158 -0.04694271328622196 0.0
210 1 0.2231075210545762 16.921113596973267 0.0 0.10226037265187062 -0.08522529206168837 0.0
211 1 4.732780187820029 18.554950055189163 0.0 -0.03273528329588917 -0.09985914228101546 0.0
212 1 8.52909485057491 15.474672577631043 0.0 0.11096659048408582 0.10799277647311775 0.0
213 2 14.339167548181475 11.48912398245272 0.0 -0.038454572660661754 -0.04297370572385621 0.0
214 1 18.636602526996345 7.653421114260148 0.0 0.020231631672557322 0.03154876361790572 0.0
215 1 10.32077629472884 14.1285668537386 0.0 -0.17100733199750096 0.05362517519565494 0.0
216 1 2.1935119073704388 12.805385564563547 0.0 -0.040960787895613804 0.08350225717043952 0.0
217 1 12.153376051240796 0.27798325384526423 0.0 0.060948593198643354 -0.0893954377324748 0.0
218 1 5.19950179429585 13.432694193149255 0.0 -0.0189060465026718 0.036882675077118676 0.0
219 1 10.683396473791213 3.1365146617400423 0.0 0.07840937920638683 -0.0763146391556509 0.0
220 1 9.669090979944 19.235818746777966 0.0 -0.010950402847076615 -0.07920078808467283 0.0
221 2 9.792589165967135 2.3513343806738725 0.0 -0.015954259918386577 -0.04663182620106301 0.0
222 2 1.5271864507121242 19.334233205389317 0.0 -0.004315749220718312 -0.006251562217796031 0.0
223 1 5.1740322571805075 14.108310874410405 0.0 0.08744782235457733 -0.010410504279957277 0.0
224 1 13.021998036530196 8.315632332246658 0.0 0.06519739310690795 0.07799108824139032 0.0
225 1 11.66844949677264 0.8150903336068214 0.0 -0.002506221878796981 -0.07660283963910532 0.0
226 1 7.8160642168277965 15.265242074308832 0.0 0.04732368902961272 0.0028380352156436627 0.0
227 1 13.069438956671673 0.8484629630324517 0.0 -0.13519207911355013 -0.061800233949213766 0.0
228 1 5.212663682741059 0.49623719106513536 0.0 0.004551510211386815 -0.058222444487465864 0.0
229 2 6.720709669475718 4.995885674344837 0.0 0.023720183210138378 0.07884036783855955 0.0
230 1 5.452350274694701 1.6337494494727443 0.0 -0.04289736575651942 0.16799010128949374 0.0
231 1 12.106923081936506 10.925175857263348 0.0 0.10202615202520203 -0.01134624719402236 0.0
232 2 4.080338634870306 11.434839482239159 0.0 0.006111363887430019 -0.026249325536535167 0.0
233 2 15.473879916024638 12.155124431925424 0.0 0.021836876133490647 0.05100998243574562 0.0
234 1 11.295058747249572 7.140968978621944 0.0 0.009892138523759628 -0.12420689254528502 0.0
235 1 8.729874586033835 11.22373133730109 0.0 -0.03565004787681924 0.0821639409847295 0.0
236 1 2.8313307625177093 13.078922728529534 0.0 -0.035517721033946285 -0.02814146930396303 0.0
237 2 6.386955943913647 3.7480028930629374 0.0 0.003142930741934794 -0.004202247899807203 0.0
238 2 7.912267837218749 16.38882812074169 0.0 0.08616922339814577 0.05990747605217466 0.0
239 1 17.801912475186974 9.211758610131143 0.0 -0.022049156888077532 0.05856880327290045 0.0
240 1 14.119135263738256 1.4138392814626688 0.0 0.04713880382947604 0.03281203498850038 0.0
241 1 6.962271015293916 10.092852770540004 0.0 0.08073518824166052 0.0755532150666148 0.0
242 2 17.782879595905065 6.846734944770306 0.0 0.051259526115027376 0.07940190571247281 0.0
243 1 1.2005985182466263 1.8703807104442602 0.0 0.04353679712446475 -0.11683766870566033 0.0
244 2 0.4335569439452547 15.846701883894646 0.0 -0.021407111972284686 -0.05841128415211349 0.0
245 2 13.834010809885418 17.405302091689475 0.0 0.05604012771158633 0.08452603603044319 0.0
246 2 11.796989101147012 3.2804047497953683 0.0 -0.011609280539508465 0.025207280412192317 0.0
247 1 2.3977786443414484 2.534862211661051 0.0 -0.052499603509128925 0.0802220573118616 0.0
248 2 18.963636935501114 3.1019386797993485 0.0 0.08708063121657657 0.05975544951321832 0.0
249 2 10.245962210832396 15.733420731228803 0.0 0.11113401403773915 -0.027857023653647953 0.0
250 2 17.214288635620026 5.392024992835108 0.0 -0.022437986236990337 0.056049722567282065 0.0
251 1 10.21557503685901 8.474850895267787 0.0 0.02582738521572432 0.01944939653402861 0.0
252 2 14.032272381136085 14.03125768838523 0.0 -0.002673953155868037 -0.0032057689628910303 0.0
253 1 4.571888296634107 13.75019743895724 0.0 -0.21887769861015516 -0.09760152126441672 0.0
254 1 5.4716971277816935 14.711165899502726 0.0 0.10935412276961515 -0.04432450366637704 0.0
255 1 12.794466729459089 1.4300018440363862 0.0 0.10970979214031526 -0.05239964590179485 0.0
256 2 17.145570826382425 10.093701079218345 0.0 -0.07294170806435772 0.03334992449708071 0.0
257 1 2.036027279628604 1.299409735724024 0.0 0.013746734710370615 -0.10342559536333479 0.0
258 2 2.6330340930331566 7.935691812232306 0.0 0.03422713178354631 0.07298114584160963 0.0
259 2 0.7576979030871424 8.765095245300307 0.0 -0.006965293775609918 -0.015112203277247183 0.0
260 2 3.4334125394117696 14.066653813136433 0.0 0.01753300475853269 -0.053181552211405574 0.0
261 2 15.72743114492439 4.936764898053851 0.0 -0.026898642010835964 0.014313514604426383 0.0
262 1 1.2821139700362838 11.960984525254043 0.0 -0.10046667680873303 -0.005591480557218577 0.0
263 2 13.597982661199802 5.215705537233368 0.0 0.031367223522630425 -0.07320502522796585 0.0
264 2 1.742070298648324 4.1930360874247965 0.0 -0.026806822698034066 0.022643895822370117 0.0
265 1 12.50767710537661 4.863569135911914 0.0 0.0589753673057732 0.001248110925485493 0.0
266 2 15.784886774152085 3.6779173319277514 0.0 0.06447485130963061 -0.008195913326312405 0.0
267 2 6.526423255977608 1.6817856977390966 0.0 0.008284470873149498 -0.003222657217894265 0.0
268 1 0.5333725384528523 6.88382829628687 0.0 0.018747090227179786 -0.0469203514901809 0.0
269 2 3.1543965299634347 10.613599503931637 0.0 0.06837617614002739 -0.09078378931547623 0.0
270 2 7.260894559102996 2.7769686836459107 0.0 -0.020016876796540243 -0.050004820021104714 0.0
271 2 4.8713651495036245 17.4659915621462 0.0 0.043668075665141554 0.1010190927174547 0.0
272 1 14.621598177842564 4.78670654331018 0.0 -0.030645839010097247 -0.08382320935750391 0.0
273 2 6.173517493460055 11.600789512137567 0.0 0.0213166437114807 0.018242113034616602 0.0
274 2 19.733277563640293 7.821462271111047 0.0 -0.020585671830533354 0.019419989535010836 0.0
275 1 16.15465263873345 17.468758185527122 0.0 0.0253566960302258 0.1489576294361577 0.0
276 1 5.414544084336921 15.405197800845343 0.0 0.08164340584721931 -0.019164843440282263 0.0
277 1 8.1190352581997 10.900259924834483 0.0 0.036748191035155184 0.07005451556223032 0.0
278 2 10.09162764993485 12.337433854198665 0.0 0.007146945562528683 -0.022606639928195095 0.0
279 1 19.677262683004418 2.267405219011823 0.0 0.09472946148160122 0.051735367110218484 0.0
280 2 7.514109313941397 8.762788832373024 0.0 -0.0728220400741159 -0.05921815688812004 0.0
281 2 8.807846894728835 4.4836153040603435 0.0 0.07518021819200905 -0.018155546580928678 0.0
282 1 4.817230337806914 10.653258453993411 0.0 0.05324261283227454 -0.02591901380069247 0.0
283 2 2.685742713538069 18.954085645134285 0.0 -0.0015219369602817686 0.07600882873217774 0.0
284 2 3.7079495987357904 18.272318737929353 0.0 -0.03431705901835417 -0.05594368199906948 0.0
285 2 4.534169169342439 5.442506147450153 0.0 -0.06625440425733697 -0.01091877421595427 0.0
286 2 3.510654934722632 2.956011185089186 0.0 -0.06560729017912627 -0.051180419904295914 0.0
287 1 7.779697977763527 12.168755514755942 0.0 -0.03972533480969077 0.0401141190180727 0.0
288 1 9.033355367906125 11.85187612873372 0.0 0.031126588883527474 -0.04402094052300767 0.0
289 1 10.860664159875336 19.63521489457275 0.0 0.041316712400204625 0.032910752775354324 0.0
290 1 7.489209436975342 11.218712065852214 0.0 0.03431700883355061 0.07189677673207019 0.0
291 1 12.836624147080679 0.22948141722671678 0.0 0.0016735785919492563 0.005353166603689977 0.0
292 2 14.38678936137055 3.1020439670742324 0.0 0.06983367402879065 0.03416270536290343 0.0
293 1 5.5007944625266445 19.648976994710022 0.0 0.05706893714999434 -0.07259240417346322 0.0
294 1 9.281778755915436 10.810635006185606 0.0 -0.036649973022497895 0.032488164486020654 0.0
295 1 19.63525708882264 18.819197771393 0.0 0.1446011060325547 -0.04088708153499799 0.0
296 1 1.0762303925554408 0.5799558511132016 0.0 0.08229414929004684 -0.1030828852966415 0.0
297 1 11.066206130563378 5.291872954957138 0.0 0.09526109769332083 -0.0039768397576184274 0.0
298 1 11.86883266023505 10.2826761971653 0.0 -0.033619747108078316 0.01784890351010212 0.0
299 2 2.1593525613681908 13.924628727698595 0.0 0.09787573398138957 -0.0049529889280014545 0.0
300 2 1.5654419269855429 9.790305694035471 0.0 -0.09202727738400497 0.05393628583747339 0.0
301 2 12.301532279198359 12.010734192574288 0.0 0.1387070025436267 -0.026828331828859606 0.0
302 2 4.047666229346493 0.6932083600396185 0.0 -0.012043086592763584 0.05465914541668739 0.0
303 2 4.610114508317782 16.205982472015798 0.0 0.03140213037834717 0.016640155109409867 0.0
304 2 9.415282865886867 14.817750262744156 0.0 0.040718181866422655 -0.020726376970749638 0.0
305 2 6.494333306940801 0.292051771508132 0.0 -0.08561022262853692 -0.0026217282712483626 0.0
306 2 19.07974534727714 4.357461277993024 0.0 0.032250812534376526 -0.031879203362440024 0.0
307 2 14.090594401824047 15.354808352732723 0.0 0.002548886287133992 -0.06432728711854094 0.0
308 1 11.192385575436315 10.394342784944278 0.0 -0.02722822887115942 -0.03963662639112717 0.0
309 2 7.944677504423015 5.375843853531017 0.0 -0.08609090450332454 0.019903178908004103 0.0
310 1 9.886520648584654 4.712249899325594 0.0 0.0416339107662488 -0.004276291419659514 0.0
311 2 16.715449033915718 8.916967126657445 0.0 0.004532572252461906 0.04912626749522692 0.0
312 1 2.425707272139183 3.2106565688106876 0.0 0.018075991823912403 0.10093027178887623 0.0
313 1 12.365722293266002 0.9077686636079739 0.0 -0.07949239506622165 -0.0036259382831503525 0.0
314 2 17.664005734452036 8.123919647771562 0.0 -0.012066286209722712 0.0006756814865377726 0.0
315 2 11.17906361985283 11.528738525958422 0.0 -0.03522868751961369 -0.09208804068121455 0.0
316 1 11.433053775627924 9.752945615217596 0.0 -0.06392595880905676 0.07553936320811672 0.0
317 2 9.946214771141408 16.90866632072022 0.0 0.08885587363764089 -0.07913377487375615 0.0
318 2 12.640125335110714 16.928713557984107 0.0 -0.0020549860011405594 -0.005583044762878692 0.0
319 1 8.501766714047669 14.194514949094051 0.0 0.16440005621316167 0.11644713606872448 0.0
320 2 19.25178994817003 0.08343827352987486 0.0 -0.025993249196028082 0.0356411074831093 0.0
321 1 10.989451174682731 0.5657037798812178 0.0 0.044819168620619874 0.07656961505665906 0.0
322 1 3.9427989384550743 12.509530500043303 0.0 -0.23678427016912793 -0.028128095382854053 0.0
323 1 6.6370985347298594 14.762885840649277 0.0 0.03594078529534533 -0.08991186271992865 0.0