ITEM: TIMESTEP
0
ITEM: NUMBER OF ATOMS
400
ITEM: BOX BOUNDS xy xz yz pp pp pp
0.0 19.7609 0.0
0.0 19.7609 0.0
0.0 10.0 0.0
ITEM: ATOMS id type x y z vx vy vz
1 1 4.029603481963458 4.112657958090555 0.0 -0.002820934506886292 0.008126440225416847 0.0
2 2 0.8973623708470652 2.2155990207931464 0.0 0.04328359599951086 0.06872142344487597 0.0
3 1 2.4079050716149903 6.703931369910904 0.0 0.10833775127211301 -0.01573125106515718 0.0
4 1 10.922695859678413 17.152224957714527 0.0 0.22883957663516874 -0.040297405281903585 0.0
5 1 10.074126477958766 9.310984898066874 0.0 0.06311618367740256 0.09821092723191693 0.0
6 2 11.173649554856825 14.77139444909166 0.0 -0.013192467316820665 -0.02436087571202118 0.0
7 2 0.31278878255594506 9.062013849432057 0.0 -0.08601308952191018 -0.013612588400161708 0.0
8 1 0.35196006747465963 17.072912986572206 0.0 0.04478591328936292 0.08882182348760245 0.0
9 2 10.444992363565675 1.4345488172411665 0.0 -0.04192989184638305 0.0046987963941321894 0.0
10 1 18.44126703876993 1.4172238423257308 0.0 0.07001359230450513 0.021895286618992885 0.0
11 2 11.106556241223107 8.888884040324708 0.0 -0.0323638497256275 -0.0958600649008334 0.0
12 1 1.8770907718001808 18.42979219349961 0.0 -0.011060746772257334 0.033131968829518736 0.0
13 2 8.58477090379806 7.580627192244873 0.0 -0.05759287845000575 -0.0909286956384261 0.0
14 2 13.836709073804982 19.614481909509564 0.0 -0.10324102200699198 0.0632780868835398 0.0
15 2 4.801753078434258 11.069187182808832 0.0 0.015021632603556444 -0.005799521568108861 0.0
16 1 10.273935610131694 16.992891866804115 0.0 0.03413908514572261 0.008827374420609421 0.0
17 1 5.7356085942710475 5.0982108889772935 0.0 -0.04602556311316649 0.01918013030868511 0.0
18 2 14.94846982297422 9.26911481568181 0.0 -0.06933261645233575 0.049512130182255545 0.0
19 1 9.844377898544442 3.7265503430501403 0.0 0.03164711806968627 -0.06548978391885489 0.0
20 1 6.684566294106419 4.110522551759852 0.0 -0.08597024793169564 0.013158622128042698 0.0
21 1 2.0435538281290118 19.076579590578767 0.0 -0.030000735032426236 0.040151885891605905 0.0
22 2 9.171583631658798 1.3544411671190866 0.0 0.021847955239977467 -0.053218874471623226 0.0
23 1 17.103951039778046 0.5487430121413444 0.0 -0.020863788953930387 -0.013565419413657449 0.0
24 1 13.910597449689265 8.808480370390914 0.0 0.08669546728285882 -0.1458566778425578 0.0
25 1 12.820780036656817 5.671463130941592 0.0 0.03259161942747681 0.08606230172879938 0.0
26 1 6.8114199680852145 14.963449384833536 0.0 -0.00011889700729328883 -0.010470600386900134 0.0
27 1 12.026187776770211 16.342066150300948 0.0 -0.022691700352513916 -0.09571008898969355 0.0
28 1 12.353571659645956 7.794873354762427 0.0 0.12282924396563054 -0.06414941537731686 0.0
29 2 14.14601258882275 2.2514385890272046 0.0 0.06934038778558724 -0.10688025089294535 0.0
30 1 12.037721710072761 0.07097234162096877 0.0 -0.1337067441031259 -0.04903064342222177 0.0
31 1 6.5544444710844125 16.644786634875153 0.0 -0.006693268704907572 0.011989651151609554 0.0
32 2 2.4047319379335264 9.83430905048414 0.0 -0.028798914729399838 -0.06057404599315806 0.0
33 1 12.531999246391655 11.254685380685117 0.0 0.0155397315791082 0.1463305037313173 0.0
34 1 11.522895996035622 4.415632593383992 0.0 0.060582165846363875 0.044304089058382234 0.0
35 1 1.923535728405202 8.86211496898285 0.0 -0.03691377287318391 0.05094918657921892 0.0
36 2 14.674563166017244 7.976847596952391 0.0 0.030304857775277947 0.05249622154596679 0.0
37 1 11.68762282291187 7.956962714922318 0.0 0.06456991368764407 -0.043634844715302386 0.0
38 2 19.402966873059302 2.007276821960617 0.0 -0.0572643366739175 0.0332217350353708 0.0
39 2 12.80986930684726 6.7407984847905045 0.0 0.03837400512896917 0.02309627546195294 0.0
40 1 10.602703256711388 7.274302252554477 0.0 -0.04940052826570401 0.0203592341021094 0.0
41 2 6.597311297977779 12.572680887640304 0.0 -0.008618463107924917 0.06124271007757973 0.0
42 1 19.62959043591169 0.9156143004189897 0.0 0.08334199407151209 -0.06045858607895297 0.0
43 1 0.975023003064965 16.850961885784965 0.0 -0.06427819643749702 -0.027444760025135868 0.0
44 2 4.496138639219129 3.1078585992434427 0.0 -0.08749223379509767 -0.0556620474711755 0.0
45 1 13.957635550360482 17.92434773159935 0.0 -0.08093249709484845 0.12184582340524087 0.0
46 1 0.6576003916801959 17.703225867736094 0.0 -0.1226549439651361 -0.0070290483088425145 0.0
47 2 16.23158292270694 9.623842789168037 0.0 0.0815280221632539 -0.03243689581433158 0.0
48 2 3.5734897601191746 12.77598957089056 0.0 0.003811456277439945 -0.05492719731902811 0.0
49 1 19.219577907528922 12.210018118002814 0.0 0.1238141410858395 0.1830291800437098 0.0
50 2 11.909378204591185 1.1747956123927983 0.0 0.011822064604658284 0.003979361450241619 0.0
51 1 17.03519510628126 5.729704836118052 0.0 -0.020415878846085776 -0.02228934705464616 0.0
52 2 12.655739832371927 4.617047741429071 0.0 0.008080713304729823 -0.02989436914019263 0.0
53 2 5.156006952437869 17.641875181331066 0.0 0.11903080683531846 -0.06780788804811268 0.0
54 1 15.869352098217108 13.02821726377517 0.0 0.0009872382347167379 -0.062105952563355535 0.0
55 1 8.347408322907995 18.18976675853889 0.0 0.12455780211123964 -0.12659135840639676 0.0
56 1 11.704577329116825 6.617782148698868 0.0 -0.030601531861805416 0.04455362474637593 0.0
57 1 18.29797408882245 4.019660239802041 0.0 -0.06867227515834061 -0.14370802760637444 0.0
58 2 16.706629365685124 16.01495718804854 0.0 -0.05282542997752473 0.027632174811949798 0.0
59 2 18.580992932745033 14.083999418996278 0.0 -0.07652387618099202 -0.05320151142096628 0.0
60 1 0.09464383756293322 3.0026347878692756 0.0 0.19632172482996593 0.018489511038862223 0.0
61 2 4.778924726580376 12.341937527686103 0.0 -0.013576663421099656 0.002911118923124494 0.0
62 1 11.040799731115719 7.777176370689034 0.0 -0.0064481900642882764 -0.06836563438988229 0.0
63 1 19.577037199455493 3.602468144100304 0.0 -0.09144496454565686 0.13443604378804208 0.0
64 2 8.118389322907484 9.717103526649097 0.0 -0.04946991974218696 0.03580734468735412 0.0
65 1 2.688824064881229 16.42734193439027 0.0 0.08529565300116429 -0.11651257494096953 0.0
66 2 1.277296992931769 6.562964291704576 0.0 -0.07148723048140544 -0.027587358266358573 0.0
67 1 13.059338423928564 2.4429793843828915 0.0 -0.118723268306858 -0.07451740035096441 0.0
68 2 11.719376138768888 5.511738163958799 0.0 -0.030489286565488927 -0.02811313003322444 0.0
69 2 7.083937108629786 5.941954047991045 0.0 0.04425264003443253 0.07424512966029828 0.0
70 1 18.956367420594034 6.08279251565524 0.0 -0.03264411165569864 -0.1770253639537252 0.0
71 1 11.226119014285459 12.61097789138246 0.0 0.0070415219795190165 0.060261782017369786 0.0
72 1 13.359841801781375 3.7751421690189555 0.0 0.07016109456351595 0.05786848453934636 0.0
73 1 5.737788710446094 11.77628581547765 0.0 -0.1108417443609426 -0.04543693834858599 0.0
74 1 18.673526696389946 6.693049142332961 0.0 -0.19416445212102332 -0.023259209869211442 0.0
75 2 0.962025902964457 3.721116309689065 0.0 0.04001390534071425 -0.004015250118186186 0.0
76 1 2.995848501155689 6.3211571418606765 0.0 -0.1149606359220572 0.03121112611421535 0.0
77 1 2.720201018402265 14.24384217798562 0.0 -0.054136804417998535 0.030642095939283204 0.0
78 2 4.0932450400801015 6.428279236521408 0.0 -0.02827253922437207 -0.0927578198457279 0.0
79 1 8.78270786897405 11.722504757929704 0.0 -0.059010036637067435 -0.10055919571443006 0.0
80 2 14.347316219218403 1.0065458334309725 0.0 -0.011147851229325767 0.09392767033439114 0.0
81 1 12.122498293916198 10.655755963698537 0.0 -0.06539642126495035 0.10218166773117154 0.0
82 2 3.46212931506833 10.658585098167007 0.0 -0.0017716693522871866 -0.021596879226360385 0.0
83 1 19.69356869505054 17.589431416640558 0.0 -0.009661410742360576 -0.039677871159381685 0.0
84 2 10.442796459678657 4.721918230027426 0.0 0.024818690104850397 -0.02802969282413477 0.0
85 1 1.46399541178122 13.85384999993598 0.0 0.0025321799483950876 0.0015472253707354438 0.0
86 1 8.671194561658945 2.305773721664351 0.0 -0.003115713148493567 0.031092894193442862 0.0
87 1 9.361465986493782 13.855874088464532 0.0 0.006933672880686046 0.08810094016564174 0.0
88 2 13.612159769920597 12.43716973252012 0.0 -0.04214472215370727 -0.038041855448783565 0.0
89 1 6.312605027838001 19.559319818041526 0.0 0.06618104067270679 0.2665179657935736 0.0
90 2 15.919152504000689 7.764282041444539 0.0 0.03189361108459736 -0.0779660075317271 0.0
91 2 9.084567393168685 12.797704641738196 0.0 -0.06434516542975977 -0.05463713347339384 0.0
92 1 5.629500664026404 18.628777844761803 0.0 0.04912633727144669 0.09972890750918503 0.0
93 1 15.445504162052085 13.575963687788809 0.0 0.010356144703690217 0.029099558783397726 0.0
94 1 11.959534061432466 3.212012050013508 0.0 0.0603691855391666 0.028615998474309297 0.0
95 2 4.408529840999171 13.821011072345822 0.0 -0.05564581916610548 0.08042941142210318 0.0
96 2 4.8117470132503435 15.175514491419213 0.0 -0.022127220467495948 -0.025784918119165386 0.0
97 1 17.031799342741575 3.641516633378648 0.0 0.031184069804898226 0.159579561056868 0.0
98 2 10.006764472017789 8.195060795249242 0.0 0.020249209880180037 -0.0008378883161427934 0.0
99 1 5.164844455959611 6.28367303420071 0.0 -0.06183823622861916 0.03973338295210896 0.0
100 1 2.038866880031836 3.9891149751943002 0.0 0.12135148365140278 -0.06041824684384157 0.0
101 1 11.252301294970309 7.130706896652635 0.0 -0.0029716328527442863 -0.02653475277938468 0.0
102 1 1.1425797880098179 4.8267712916162555 0.0 0.04485357392929412 0.07471095973822865 0.0
103 1 2.4463420052112097 4.564681278162323 0.0 -0.10931065089924552 -0.015073103675370014 0.0
104 2 15.621910425700914 18.30273374110149 0.0 0.0030155863791467906 0.044972304782082924 0.0
105 1 9.811620144831458 16.517388411848735 0.0 -0.1606067069911064 -0.01919097701353277 0.0
106 1 5.770524448545002 8.893064118776538 0.0 0.11273906279118184 0.0011572952634439943 0.0
107 1 1.65073407636059 19.618268246973834 0.0 0.030027186308766017 0.011211531153959719 0.0
108 2 3.246579528846035 2.443420117869866 0.0 0.004771430144089193 0.0336275727767153 0.0
109 1 11.8930129615128 7.30844828098608 0.0 0.06362193465569001 -0.13411179014275676 0.0
110 2 13.462786378466669 7.805881623344598 0.0 0.07453374430159392 0.0983309619578578 0.0
111 1 6.232429057594791 2.980400619163464 0.0 0.07397437951348695 0.11513341023973 0.0
112 1 10.634879518236923 12.285107565305157 0.0 0.006755059100585115 2.7760794731212217e-5 0.0
113 1 14.903051667215909 11.423973656922984 0.0 0.0836610933443689 0.07854475648111599 0.0
114 1 5.130621910328497 9.029867183881631 0.0 0.01570510257545579 -0.028805782051416377 0.0
115 1 14.615567398010931 17.951296133538 0.0 -0.10378757201775682 0.051031136520768204 0.0
116 2 15.474659195603605 15.801095001558263 0.0 0.03256579016392356 -0.02353602227540606 0.0
117 2 17.403591690401672 2.631284213652696 0.0 0.029663044981065114 -0.06607573027917672 0.0
118 1 12.496051421274444 2.8272161069430433 0.0 -0.05737584797944598 -0.09676326218949098 0.0
119 1 5.314227949969715 5.634042650411061 0.0 0.05084600827466269 -0.08647170564899638 0.0
120 2 11.128108777139488 10.182418910345929 0.0 -0.00872602629167162 0.047283106714726526 0.0
121 2 16.698076403187915 1.5888735633277802 0.0 0.06652359341807963 0.009150701041048332 0.0
122 1 14.526803001357335 3.3493874924414206 0.0 0.07090760756472293 -0.11580528273711764 0.0
123 2 9.244308497856812 17.468635603211226 0.0 0.03116560809141619 -0.031117491946435885 0.0
124 2 18.838450532220467 9.263035312999822 0.0 0.06982358662542228 -0.013240272280065869 0.0
125 2 5.118429355102704 4.218531749064197 0.0 0.0855104352777124 -0.08100698987063573 0.0
126 2 19.132013378160853 16.612403632577358 0.0 -0.023985711428238764 -0.06747322805106291 0.0
127 2 14.103339211722252 6.68175416934792 0.0 0.07421677238750568 0.027151096329643108 0.0
128 2 9.51281965259 5.678724551999547 0.0 -0.01498822407053146 0.020968919255192026 0.0
129 2 9.939455153819063 14.792647549878426 0.0 -0.010648278118280756 0.01670604463976051 0.0
130 1 6.7606081355024195 3.4303074335492463 0.0 -0.12211598207364367 -0.014244040272199731 0.0
131 1 6.951288364813558 17.150088518939018 0.0 0.14128369135840674 -0.02518606928400748 0.0
132 1 5.866963575368923 11.076120739915961 0.0 0.04387530304080245 0.0869251335567262 0.0
133 2 19.621602735077783 11.155762384220658 0.0 0.004448759693339802 0.02621077607682595 0.0
134 2 14.969721437151193 14.60943769458504 0.0 0.01977885437428094 -0.04823184596231302 0.0
135 2 2.3469250188117154 13.199365896697747 0.0 -0.03659615296246586 0.036813333706347456 0.0
136 1 1.1582960503819808 1.067870612402668 0.0 0.06405840647692769 0.030186647760260383 0.0
137 2 12.39029286340167 14.660943758608614 0.0 0.024473776451148063 0.014463739319427956 0.0
138 1 8.671373682175886 13.79291094705011 0.0 -0.043209630363120824 -0.036490498318793516 0.0
139 1 19.097808258343687 3.120330078627908 0.0 0.03762181725140475 0.06423418367270492 0.0
140 2 2.4910954282000857 15.350770214004429 0.0 0.0185735099549665 -0.10527386524288312 0.0
141 2 14.313548661453 13.550593531828095 0.0 -0.033605675897503524 0.0029023167400225335 0.0
142 2 7.205478207408423 18.196695409957698 0.0 0.045075713176275234 0.026971175519410504 0.0
143 1 10.607176010087114 13.812282457247557 0.0 -0.11426215937554417 -0.05727925447018411 0.0
144 1 8.117539252505795 18.838224090635904 0.0 0.09630585826484983 0.0516391758449796 0.0
145 1 18.305228330267767 7.256109280684781 0.0 -0.048134193169181896 0.0018321290700007095 0.0
146 2 9.265073103744491 18.815484269571947 0.0 -0.00143289719237588 -0.011562079792942615 0.0
147 2 1.0678988446779132 11.557051622118545 0.0 -0.08258139530698834 -0.023426270319456953 0.0
148 2 16.931470211319954 12.801044881146396 0.0 0.03957562204225542 -0.055639239971270626 0.0
149 2 7.826213541695725 13.103828622692523 0.0 0.00048344781087253266 -0.12466875364236055 0.0
150 2 13.145653360339827 10.307760341914875 0.0 0.06183899586445206 0.03905993193428182 0.0
151 2 4.278080041873529 5.190826512303861 0.0 -0.0008105680644398508 0.0162213550077815 0.0
152 1 17.98562132867198 6.6618813592082455 0.0 -0.043807824591906214 0.07031747303471737 0.0
153 2 10.344425597321345 18.087740209884636 0.0 -0.057298256377771285 0.006203375172032494 0.0
154 2 2.941495218743115 8.582501383869575 0.0 0.08373777865197003 -0.02790243356478444 0.0
155 1 0.7415500007236688 18.680066920990214 0.0 0.040984240276751537 0.11137744852322316 0.0
156 1 18.31025648106972 2.0663424135463138 0.0 0.09541988263236764 -0.06294347729548602 0.0
157 2 19.55766160639656 13.273053361891659 0.0 -0.04632389313860434 0.009775371468134134 0.0
158 2 2.66927663708297 0.24150849427329302 0.0 -0.10311121048254875 0.053034257746891716 0.0
159 1 6.322805529018603 17.462272710415984 0.0 -0.041867070333971995 0.11347734836767939 0.0
160 1 4.5351706092379445 7.464683877068806 0.0 -0.043065085089799254 -0.11946267203740359 0.0
161 2 17.86507686711215 19.553108262631387 0.0 -0.09806716896508826 -0.08860029829131198 0.0
162 1 3.2680709811838162 5.673135806249393 0.0 -0.09014588978063043 -0.032388725830648106 0.0
163 2 8.917751933377145 8.745085876455807 0.0 -0.016706442125455186 0.029084384919981915 0.0
164 1 11.640753454588266 19.216222886555272 0.0 0.1299503750190334 -0.0315124021832352 0.0
165 2 7.965705222471819 10.99420234194246 0.0 -0.038550302177352676 -0.036668068969767945 0.0
166 1 1.626769858757473 16.892000111156733 0.0 0.04144362486460017 -0.0018800993057634487 0.0
167 2 7.631027928109533 2.743003609718976 0.0 -0.011389807926584635 0.048376902926446926 0.0
168 1 3.209597831490439 11.729560701519551 0.0 -0.08788981568437192 -0.09545602289247411 0.0
169 1 18.972956890360084 1.015460083904125 0.0 -0.04876194643633438 -0.11531900091279328 0.0
170 1 17.54095016091329 13.736515353300947 0.0 0.1079898634073433 0.061418369847300314 0.0
171 1 1.3798694413275334 18.94055089506374 0.0 -0.03495020716018723 0.11160249408461805 0.0
172 1 0.14821671103444964 12.232777492366003 0.0 -0.051723004122783404 -0.14207155306280078 0.0
173 2 18.61343628900356 5.035723061790289 0.0 0.10142131067128331 0.05158149180122353 0.0
174 1 4.001371369443907 15.895330296079075 0.0 -0.017215401944893016 -0.025051446167993065 0.0
175 2 19.109067688088167 19.695161516533997 0.0 0.005105127934845814 -0.00991937482026862 0.0
176 2 14.244114450825727 15.686711169257642 0.0 -0.06575397927229773 -0.004063656849690652 0.0
177 1 5.3120307635150965 8.372263543071588 0.0 0.08736715237777251 -0.08754768526850483 0.0
178 1 1.0380738294881506 5.4828131380640235 0.0 0.02554440692832219 -0.07781169173880564 0.0
179 2 3.8239218795041983 17.644127009899545 0.0 0.010347912194930716 0.0155886625582894 0.0
180 2 8.024667421515693 17.12583638008055 0.0 -0.03204261029912384 0.02615519729310281 0.0
181 1 0.42755828628399356 5.749560139409883 0.0 -0.07898424227367096 0.060402946102652975 0.0
182 2 17.60736294795606 11.729700307962162 0.0 0.07822369880846222 0.05794494148776456 0.0
183 1 3.251905202061991 16.750552887951674 0.0 0.05991721576548277 -0.0006196450965615383 0.0
184 1 17.38477384395858 6.312272317861291 0.0 -0.017662618951063067 -0.11193417992885547 0.0
185 1 1.4066648064751852 15.593289862261292 0.0 -0.10059155884658391 0.0006730761979273165 0.0
186 1 18.398672321373677 3.3551797205542333 0.0 -0.04381813077152959 0.1390128250314156 0.0
187 1 10.34941909497377 19.155458461284688 0.0 -0.13136160797210655 0.11103429456601376 0.0
188 1 18.342159748566782 0.7636276847793049 0.0 0.08308673875018734 0.050375427360389795 0.0
189 2 11.611278122583832 18.065864947245544 0.0 -0.057574144048543635 -0.0386379806087258 0.0
190 1 5.950437454467244 16.888869476646754 0.0 -0.1097276157895549 0.06490295805827358 0.0
191 2 6.796289912744171 9.272369368626327 0.0 -0.02001117004732997 0.1040724339728931 0.0
192 2 5.403955012424091 2.16277507466851 0.0 -0.0009493603535906439 -0.02946390234711461 0.0
193 1 14.788713918406485 16.63385313583902 0.0 0.11396297276341769 0.04924385266722132 0.0
194 1 15.200523589855173 3.5680066299963222 0.0 0.0002459239716780723 0.07735398265310077 0.0
195 2 11.714849660783837 13.595962171446033 0.0 0.05931031848445537 0.034108725969922774 0.0
196 1 18.947915077200992 3.8475307105943988 0.0 0.04638822874936616 0.03957271299314009 0.0
197 1 12.621626680017176 16.727423559213317 0.0 0.06280269551188351 0.03457802555816468 0.0
198 2 16.003212279497536 11.842194162055915 0.0 0.0974787634735836 0.01719157499974063 0.0
199 2 11.44629858589596 11.524917697202197 0.0 -0.029593263595604997 0.015117538087645115 0.0
200 1 4.271883859875739 2.0379926097585566 0.0 0.02850529563479025 -0.019932390189223024 0.0
201 2 2.4773294925545515 17.530692729966063 0.0 -0.01671438961886656 0.02152215480434116 0.0
202 2 12.865043708139233 17.797505259434004 0.0 0.043563790207656314 -0.03297437202420946 0.0
203 2 17.911041208700887 16.22677432576151 0.0 0.007276617648517509 -0.018764496168239275 0.0
204 1 13.133891663633994 3.11613002711936 0.0 -0.03702126165774449 0.07938016151042739 0.0
205 2 14.917116441266158 12.493095952242333 0.0 -0.025165217260086088 0.013523924530907993 0.0
206 1 12.07661286842104 17.073476257708364 0.0 -0.033977831591434755 0.01068534739726159 0.0
207 1 16.45604950509857 4.0231595309754145 0.0 -0.044390870793856535 -0.08206468385218847 0.0
208 2 9.603199306222823 6.917270223189377 0.0 0.03664199045022229 0.06940479610761258 0.0
209 1 1.600825748877778 0.5464630977524387 0.0 -0.023533109592491493 -0.003007985118856587 0.0
210 1 16.912344998466903 17.129143457791823 0.0 0.09328054003242783 0.05323733617320454 0.0
211 1 18.29549293766487 6.085377526964218 0.0 0.03106061922262319 -0.02398131674373894 0.0
212 1 14.847443249484847 19.094898081870777 0.0 0.02387893852270069 0.039308747666995374 0.0
213 2 14.339921227921668 10.45105123873131 0.0 0.017323096645889238 0.029116495394697874 0.0
214 1 16.64372348767367 17.772933951041367 0.0 -0.1334530586508058 -0.031027837500946596 0.0
215 1 13.793990324830741 3.259443624209883 0.0 0.06850570683409468 -0.11183788356369012 0.0
216 1 11.867298353466074 15.66297480799194 0.0 0.07408827691949808 -0.05112803691995504 0.0
217 1 11.49440089229039 16.798096768902465 0.0 0.007792300282304931 0.08957159393960483 0.0
218 1 15.314829515163034 0.5751330971398023 0.0 -0.018582526373289828 0.09885535022562937 0.0
219 1 0.7508079216696761 13.816124753851705 0.0 0.007896565651913514 -0.02210841354497785 0.0
220 1 1.5946815800352998 14.779482570608334 0.0 -0.07730866241084554 0.021509541390902737 0.0
221 2 7.917437801152539 1.5015063611765382 0.0 -0.021333087668602597 -0.0830306174907448 0.0
222 2 10.305665365203929 11.118445615066369 0.0 0.0833054641085929 -0.08195430356752888 0.0
223 1 13.273562821252387 9.134624197102866 0.0 -0.0878534412889576 -0.03861579277727336 0.0
224 1 14.12063603591425 5.558337904813541 0.0 -0.07847320318584618 -0.0037028886599978265 0.0
225 1 12.794816833370081 8.632442596914427 0.0 -0.06785122800829956 -0.011641144947607216 0.0
226 1 18.52246199911565 2.6962803990719353 0.0 0.19441124837319673 0.07121145503424021 0.0
227 1 13.706352194210583 4.40086467179311 0.0 0.017804638478801406 0.1354051623144001 0.0
228 1 6.1335999674758215 3.699346260823474 0.0 -0.0674523569456596 -0.06860396748238143 0.0
229 2 5.992386171946634 0.8924110998637507 0.0 -0.07990070974926884 -0.0020167120121818223 0.0
230 1 17.566737027715234 17.258430190496316 0.0 -0.05523076096189103 0.08431581772870499 0.0
231 1 9.146284687811642 16.353353693616036 0.0 -0.037794997071783125 0.08054392951877302 0.0
232 2 16.839378680519594 8.575051009242765 0.0 -0.05008140006342366 -0.0765729045074757 0.0
233 2 8.39052109307021 6.354631479059909 0.0 -0.0009064736656617809 -0.05033009002194542 0.0
234 1 15.476437062103042 19.391135745781238 0.0 0.04039332053143243 0.05260648462972246 0.0
235 1 1.2197538698636792 18.188410169336453 0.0 -0.0625245170827118 0.04162632728905225 0.0
236 1 6.001783702700949 5.717077408142655 0.0 -0.017985029996295337 -0.01585711914738515 0.0
237 2 18.595519988909718 17.67711408508707 0.0 0.037836517586742474 -0.1422571093542412 0.0
238 2 6.81092097467788 13.819562045196678 0.0 -0.02608585641194 0.020022730907342964 0.0
239 1 16.451676572962647 0.5028072767528555 0.0 -0.0793321549888002 -0.03367903640114775 0.0
240 1 8.376149965373989 15.502522592378076 0.0 -0.048000933639133755 0.03245714809636093 0.0
241 1 8.50508577269372 16.155416393171638 0.0 0.0802456294464786 -0.09186599991023725 0.0
242 2 17.563202579755217 18.349119610110417 0.0 0.0005924704276206219 0.02119423147651169 0.0
243 1 9.431994661666348 11.754762439505631 0.0 -0.014308885802816503 0.02218981120429296 0.0
244 2 8.821857337099077 3.3569185584435552 0.0 -0.033916213410551975 -0.0538161167441807 0.0
245 2 0.01590005666538437 6.770612777777752 0.0 -0.03597675897344146 -0.031339458823566105 0.0
246 2 16.248961937065307 6.498631078488124 0.0 -0.014565140528687012 0.01725546351195551 0.0
247 1 6.163450069043041 4.517559393492003 0.0 -0.011975473611426249 0.04619702130157653 0.0
248 2 17.028355270320667 10.635453269012336 0.0 0.02407222771017377 0.1020917055862657 0.0
249 2 0.6005123232339871 0.06638781505734405 0.0 0.08156586015232223 0.03182126351273283 0.0
250 2 3.081575360448793 18.71523882562793 0.0 -0.05212871870166016 0.05798089083552138 0.0
251 1 16.16700619707597 13.63916456485357 0.0 -0.024170621695255662 -0.027192597445715453 0.0
252 2 13.642377737945642 14.611918536309298 0.0 -0.011834092497094911 0.0746286401738805 0.0
253 1 6.389281089700524 5.140394961547895 0.0 0.06528642202742041 0.12153040828382523 0.0
254 1 13.479558663513245 5.763784481377807 0.0 0.05687420088572543 -0.0945215895663293 0.0
255 1 15.039506709099385 2.885751644581657 0.0 -0.10200251458855823 -0.052939498601449995 0.0
256 2 3.9136186170330483 0.027790641841965488 0.0 0.04643948912349165 -0.004754559309786691 0.0
257 1 3.265324399822553 13.842918141769394 0.0 0.05116723465027137 0.021364489012421373 0.0
258 2 8.041370094643494 5.154428225385501 0.0 -0.037248744540806664 0.023488794011992827 0.0
259 2 10.78984846438549 15.982549838693668 0.0 -0.011979270214418126 0.05681090273461469 0.0
260 2 17.37034199625211 4.682939370317573 0.0 0.04321485824118309 0.05512982539477578 0.0
261 2 14.799410103742538 4.64032568579689 0.0 0.014272366589419367 -0.007666527719288951 0.0
262 1 2.0376611795792035 14.272782119023713 0.0 -0.11482863493603464 0.01786986103137386 0.0
263 2 4.465934643326085 9.870561438941058 0.0 -0.04580085780108704 -0.04971690107832865 0.0
264 2 10.669198598003586 6.176495808570499 0.0 0.003232937421101849 0.018257348012692954 0.0
265 1 17.718265311410846 5.72513192934602 0.0 -0.0506821939765201 -0.008970415420017286 0.0
266 2 4.970615559187346 16.42008271339759 0.0 -0.05412912137027229 -0.05482026286538423 0.0
267 2 6.374668710107063 7.997521654312783 0.0 -0.01868260965563363 0.10367758577619067 0.0
268 1 17.67495282530222 0.9260425808126527 0.0 -0.113709136023392 -0.04750887123426823 0.0
269 2 1.1012721099699896 12.79695833928805 0.0 -0.06567388801455053 0.01766269423970076 0.0
270 2 16.147797485344256 2.952070646585759 0.0 0.05479805609566342 -0.10540463752711923 0.0
271 2 16.229329148056472 14.77170359805829 0.0 -0.019141764499357374 -0.05401482960229987 0.0
272 1 0.21124158731752576 18.220534546665274 0.0 -0.14695135680049992 -0.057388412292654054 0.0
273 2 2.265166351042742 11.087977179017127 0.0 -0.02820094449050487 0.006576045607086918 0.0
274 2 7.844509752435521 14.549934110595931 0.0 0.014992610431759314 -0.03686833857910799 0.0
275 1 5.050308634962828 6.987982655207711 0.0 -0.11206523387636255 0.026804100538082673 0.0
276 1 11.001676463948257 18.98394224537394 0.0 -0.025214311081215156 0.059165297278245224 0.0
277 1 18.707504564868646 11.772256140828905 0.0 0.02914022279722462 -0.02791354192607011 0.0
278 2 0.3390950566044289 15.903951110676896 0.0 0.08936826169277898 -0.011877143977698457 0.0
279 1 0.4807289238836637 1.1946723792755227 0.0 0.006208144148676705 0.07389630275969734 0.0
280 2 12.71135560333014 19.00084473418714 0.0 -0.03505698092661217 -0.006010050798305774 0.0
281 2 6.009090077680267 15.720294758432042 0.0 0.02792560381108925 0.07456216708262937 0.0
282 1 15.337935682122948 10.942493851135728 0.0 0.00018832594302261015 0.07811574115660035 0.0
283 2 17.619888410243796 9.536478053030198 0.0 -0.014672096555695647 0.053242941903116604 0.0
284 2 3.4651428275598133 1.2219849884439613 0.0 0.02130718498509222 -0.051273005971406195 0.0
285 2 12.338214162160801 12.398241571165968 0.0 0.04370263485123687 0.0024296671161959473 0.0
286 2 19.204172886987944 7.905842634064866 0.0 0.04689991196951509 0.1115482573245773 0.0
287 1 13.596685037520324 11.327102735949994 0.0 0.07430923333407394 0.0079702626140772 0.0
288 1 10.04729934150666 10.008041549112479 0.0 0.1568612115728507 0.0353869116546103 0.0
289 1 8.858203537387075 15.043859144679043 0.0 0.0738036383806833 -0.037388449594895734 0.0
290 1 14.074320638144822 3.8502225369866103 0.0 -0.06485048992705342 -0.004731582431450329 0.0
291 1 3.4588422543869646 9.534450601412267 0.0 0.008280875145557618 0.00844663635058672 0.0
292 2 0.9059330544222923 10.282398040346125 0.0 -0.10184277122477432 0.03993884032340931 0.0
293 1 13.657667891278294 5.0723399629090675 0.0 -0.0007596926611208194 0.048788777232587406 0.0
294 1 17.749890067777464 3.6532704112819925 0.0 -0.1619879009463494 0.11953840045607504 0.0
295 1 1.7554857456354773 4.581270456677281 0.0 0.09812200735745207 -0.0009768181225826428 0.0
296 1 3.8783059121073657 16.540267324188633 0.0 0.003952467677595656 -0.0943500319825862 0.0
297 1 10.162814760023611 12.815343937965473 0.0 -0.05366970880072951 -0.01756766414602603 0.0
298 1 6.366698169404093 11.511387003300344 0.0 0.15168477714301978 0.00791592500731104 0.0
299 2 3.3256192393532125 7.39926691768604 0.0 0.004265659776946167 -0.00859285282042017 0.0
300 2 12.199485428945268 9.539062309017474 0.0 0.027815942830122106 -0.019264091536674598 0.0
301 2 18.280128988661986 12.840644857602985 0.0 0.0722726751323907 -0.04129516870612932 0.0
302 2 9.858082142363125 2.5865901933412148 0.0 0.013067148567447643 0.05891946370453107 0.0
303 2 12.982832243378388 15.737239210969689 0.0 -0.011869989000728649 0.011921560929268377 0.0
304 2 15.817877488091149 17.0286640905294 0.0 0.014723330159985558 0.06157036027481888 0.0
305 2 8.428317474967496 0.1616646523676785 0.0 -0.003529279926905669 0.09463894083763087 0.0
306 2 3.6145095778869623 14.883403986405911 0.0 0.04816325748755298 0.1089567828985481 0.0
307 2 4.4946761890938935 18.688725188247666 0.0 0.02284948860180717 0.0011405475224222567 0.0
308 1 8.93763300704255 14.381363488290154 0.0 -0.04297427490441741 0.04012104180160208 0.0
309 2 13.716078137155609 16.856378813630187 0.0 0.05558882212073497 0.010691138442270372 0.0
310 1 15.855032427832542 0.18873215881864155 0.0 -0.09737493566983034 0.020152000638214283 0.0
311 2 9.691237731195281 0.25414752378809885 0.0 0.10521907932392897 0.05515493675835776 0.0
312 1 1.3626247298144194 16.26985575960657 0.0 0.0524915126953576 -0.22410841706104617 0.0
313 1 2.656005503610894 12.13861804717198 0.0 0.021523364030707842 -0.014185712923023678 0.0
314 2 18.457576998188095 10.604890096480048 0.0 0.09353487552198023 0.03538656728518367 0.0
315 2 1.9744764944973585 7.731469545401601 0.0 -0.011714374011687102 -0.07626828384764596 0.0
316 1 14.760819520634941 17.303157532360505 0.0 0.03547773408183888 -0.03712490506296627 0.0
317 2 9.15624732652984 10.666624071912821 0.0 -0.06999249193242431 0.034232400941673145 0.0
318 2 2.172519209473964 1.5420126896532336 0.0 0.044282330895403836 0.036690140961587854 0.0
319 1 12.146048355476502 8.443086586477648 0.0 0.05230831449059225 0.05216065998309271 0.0
320 2 1.9923237604005775 2.888763992137353 0.0 -0.03218496286396021 -0.042054577765025344 0.0
321 1 11.915735717914886 3.865174564640366 0.0 -0.030525081538006444 0.03230413259760416 0.0
322 1 6.970491594947745 4.778171195557472 0.0 -0.10987407392571616 -0.17765246885640468 0.0
323 1 13.6989127289831 18.530813855058636 0.0 0.015340770597398586 -0.04773791691822687 0.0