ITEM: TIMESTEP
0
ITEM: NUMBER OF ATOMS
400
ITEM: BOX BOUNDS xy xz yz pp pp pp
0.0 19.7609 0.0
0.0 19.7609 0.0
0.0 10.0 0.0
ITEM: ATOMS id type x y z vx vy vz
1 1 15.223193026704427 14.843653298852168 0.0 -0.1071197540825555 0.09416913571014361 0.0
2 2 14.829552466063546 0.11722879091977448 0.0 -0.04948717009347368 0.019051084172623405 0.0
3 1 15.821498295523055 5.074672000644436 0.0 -0.08128801660287996 -0.04009115427446536 0.0
4 1 16.99019070893556 18.76266075938375 0.0 0.0703109350394835 -0.01930812271780391 0.0
5 1 1.7998057436899715 3.5452711324787756 0.0 -0.046178250557054226 -0.0707167007431429 0.0
6 2 15.261644458256967 9.144469356141292 0.0 -0.0023637414905373763 0.005202825116025334 0.0
7 2 4.142075802516671 3.6482970476600616 0.0 0.1258231493682753 -0.024092614939181998 0.0
8 1 2.9629677310846447 1.6935503570720014 0.0 0.008842789735131676 -0.05127806241871351 0.0
9 2 18.301628178516488 3.295560371944284 0.0 -0.03647374905818647 -0.09862198801802788 0.0
10 1 13.451824766405188 6.190618469565494 0.0 -0.03738212604451775 0.10919819897019693 0.0
11 2 7.434712224293471 19.018248402546437 0.0 -0.04244309080253043 0.005132947126764784 0.0
12 1 3.3462490010988484 4.417174959178528 0.0 0.032143331071082915 -0.09003644755090484 0.0
13 2 0.7583136798756427 17.39633598375443 0.0 0.03829996518671688 -0.031046771528002566 0.0
14 2 10.002925072749179 16.763929351387418 0.0 0.00479425709719388 0.02767637131347267 0.0
15 2 13.751365457577439 17.88641088540398 0.0 0.05243556450306251 0.01257829734895021 0.0
16 1 3.4180349588917194 7.09685889755771 0.0 -0.049636977509474565 0.0762269379166221 0.0
17 1 1.319484550117146 4.027163326651769 0.0 -0.09710176678961387 0.12617292109290998 0.0
18 2 1.6986820442152342 5.609881128459283 0.0 -0.014459496492007845 0.07586522939719982 0.0
19 1 10.283615992145863 17.853449650658455 0.0 -0.00840661388652532 -0.0071709828999260835 0.0
20 1 14.98502373605898 11.475155135741597 0.0 -0.055621213741344364 0.029861098564717355 0.0
21 1 17.933821009103042 6.876362008244597 0.0 -0.010616802375822604 0.07831709945116865 0.0
22 2 17.094575767581777 2.9102995833630576 0.0 -0.017281717838476717 -0.011215308578433263 0.0
23 1 0.46703793255211346 0.27253144664101053 0.0 0.05343969266628422 -0.16936380562543024 0.0
24 1 6.430534313153957 14.038865919871055 0.0 0.06891730413880084 0.0682086566675 0.0
25 1 3.055951890052578 3.776878553067159 0.0 -0.026102216030686583 0.03636149303334344 0.0
26 1 0.6691498471886876 12.325252835115263 0.0 0.056700399901495994 0.07924487020850335 0.0
27 1 7.5893154845079245 9.775178968542265 0.0 0.1410539511697549 -0.16535199691826158 0.0
28 1 9.561034687419625 14.518862732844932 0.0 0.1741983531046718 -0.020855545395284537 0.0
29 2 6.259077072461996 19.357087363680535 0.0 -0.001551178189830428 0.007088347627345821 0.0
30 1 10.131885459836345 6.4682609497988315 0.0 0.05254424154288563 0.05225678406830315 0.0
31 1 15.312240487499224 12.07909016242769 0.0 0.011473953846709774 -0.032116698035844556 0.0
32 2 14.957369369783311 18.56417942321253 0.0 -0.015885328657924885 -0.07198339883270659 0.0
33 1 16.051759352207497 5.700957823785982 0.0 0.028453326825677687 -0.04302809871587416 0.0
34 1 17.351232535010872 15.533301389703833 0.0 -0.0024715913429413138 -0.0916282498073092 0.0
35 1 15.94899885645828 7.636424334556867 0.0 0.034786268785253704 0.10184204201909848 0.0
36 2 2.9778219212383292 0.5224316316841542 0.0 0.009063681223730875 -0.07139364438840033 0.0
37 1 17.889786860894244 4.321387028192714 0.0 0.023091282509112583 -0.12364394857548838 0.0
38 2 18.364289782125898 16.91768106048991 0.0 0.029621548729584432 0.056121969154273484 0.0
39 2 7.2685596236794 14.815709364863277 0.0 -0.06795700374318495 -0.07356286026406889 0.0
40 1 7.265367272905891 3.7981138533514875 0.0 0.055432238327075105 -0.11155022966476444 0.0
41 2 17.763760093423507 8.532938590487639 0.0 -0.012630936204003396 -0.0788271244794421 0.0
42 1 8.474562657015118 19.262181302368592 0.0 -0.16552407055277166 -0.04572957647843353 0.0
43 1 8.479936942928527 13.720408253438778 0.0 -0.12948584106144992 -0.027798618503889743 0.0
44 2 6.605557352053664 2.8912714314255084 0.0 0.08572971175694775 0.005339120255714037 0.0
45 1 15.77267354051251 14.446826884796907 0.0 0.011789366638569063 0.03918259593780775 0.0
46 1 12.942388932018806 9.679640150656775 0.0 0.028801739166791174 0.02838916448787052 0.0
47 2 0.37316154705238963 14.071023623644042 0.0 0.08098341422314287 0.03032970842041908 0.0
48 2 4.594117474054201 0.8312654614980233 0.0 0.043315721054747555 0.008573141086325708 0.0
49 1 5.472403748565742 5.567821149252325 0.0 -0.07095213961596862 -0.03689914757596109 0.0
50 2 2.3784847115650662 7.600834936986721 0.0 -0.037435202424643446 0.00542866573368612 0.0
51 1 17.846326851366285 11.445661352915574 0.0 0.0889109755620341 -0.06646841147483974 0.0
52 2 13.847475715072163 1.113509802612685 0.0 -0.026105317012869507 0.06079705147405417 0.0
53 2 3.070064871831035 5.5103038726649 0.0 0.01175282291971915 -0.018671362334952393 0.0
54 1 18.578048479067125 6.627004894894985 0.0 0.06859745814131069 0.0629892175908132 0.0
55 1 18.76591484540945 2.2644726748401216 0.0 0.09636661651821565 0.007805692838910297 0.0
56 1 19.466989971856304 4.614346034273615 0.0 0.014117160950433048 0.07245684704795403 0.0
57 1 5.398865116271393 12.197788757841458 0.0 -0.003517904516909059 -0.008137396105556763 0.0
58 2 3.795212505872414 9.720489083067461 0.0 0.005923408442751706 0.024081732017944852 0.0
59 2 9.922556130039263 7.709535589951117 0.0 0.04354865854875731 0.02486224208440752 0.0
60 1 4.6218698448538555 4.660174611807716 0.0 -0.055709582976846105 0.20190218153891631 0.0
61 2 4.325190928922449 8.497425697216295 0.0 -0.004307560355725203 -0.04397956355097283 0.0
62 1 7.856393883017411 7.910180490687134 0.0 0.2012268741816342 0.03518289569477656 0.0
63 1 19.574698356922127 0.07532418118700333 0.0 0.10244195580882359 0.025550227595971982 0.0
64 2 12.85396483288955 0.28608928002794043 0.0 -0.024984787914947633 -0.0062198992028511604 0.0
65 1 0.3042714323030995 0.915217011317223 0.0 0.00876578093208866 0.016947768846109063 0.0
66 2 16.209640534923853 15.440019051634946 0.0 -0.05149086626173185 -0.024428625603323664 0.0
67 1 2.950202024860992 6.614735286979281 0.0 -0.05138122658701124 0.005152492997556967 0.0
68 2 15.766716072471748 2.7578681867480204 0.0 0.1195325034719414 0.010131331126216577 0.0
69 2 19.527731993517516 12.980816241772851 0.0 0.005626647543805296 -0.01298700855437604 0.0
70 1 8.586846011520343 1.3395926517091798 0.0 -0.14031561196216133 -0.18181142288889304 0.0
71 1 0.09444597017268545 16.506661110611365 0.0 0.05782008723088545 -0.051771868556146516 0.0
72 1 18.60164661922065 17.97712700799635 0.0 -0.018954298228807277 -0.0893502660903202 0.0
73 1 19.353433787391218 2.744513697805823 0.0 -0.02762608891644013 0.06132558581461536 0.0
74 1 15.498115774229174 12.747749378456936 0.0 -0.08099550595435107 0.037353479136316106 0.0
75 2 10.455562900765038 0.417408433670154 0.0 -0.0442607127575217 -0.027671193121042357 0.0
76 1 19.410246240886558 2.055143218762249 0.0 -0.03825641265455748 0.0187051273976751 0.0
77 1 18.569232687697887 4.496644236238204 0.0 0.007063398287799762 0.06339081487699202 0.0
78 2 19.699720878893267 9.984703598918893 0.0 0.0015178939350444503 0.040496667262851165 0.0
79 1 13.605115988807784 12.769249063968132 0.0 -0.013029713622677425 0.005643791485152496 0.0
80 2 15.89273933972454 0.7577842463233538 0.0 -0.04582305762830543 -0.028333755478962566 0.0
81 1 10.838931035953559 1.4623840292017143 0.0 -0.06307806234698017 0.184432975474914 0.0
82 2 16.26483979333215 9.921377189926814 0.0 -0.07759192086340293 -0.04058463745899028 0.0
83 1 19.112923580320114 18.438087287185787 0.0 0.03371181055857008 0.07312900612750033 0.0
84 2 13.013231906790265 4.1854281018257335 0.0 0.06501826702264847 0.01008815512873052 0.0
85 1 8.377925483004983 6.7298993770766575 0.0 -0.02322907423574514 -0.06527572437896058 0.0
86 1 9.11309592300281 18.27432343305052 0.0 -0.037645777031972444 -0.08075021743402827 0.0
87 1 19.197570770107088 17.67157159690036 0.0 -0.12279210856381684 -0.09804333817008079 0.0
88 2 16.27665630613165 13.489824086442795 0.0 0.067088316789228 0.020847282183604342 0.0
89 1 17.842674518481843 14.619331727876135 0.0 -0.07636792952924044 -0.06474613914209791 0.0
90 2 13.937705750907472 16.54798336945425 0.0 0.03690110655919635 -0.02441490546959363 0.0
91 2 16.4543216157949 8.64687723083992 0.0 0.046161573470819055 0.011043395234320559 0.0
92 1 10.392574356809336 13.56019980660613 0.0 -0.09640783466588491 0.029042899842190394 0.0
93 1 12.861962512451774 5.862544129690281 0.0 0.05659069934310635 0.07435011868123302 0.0
94 1 8.476112609599282 18.541572495065548 0.0 0.01920663910902513 -0.0659095947520975 0.0
95 2 2.7609784483483564 19.01523252964275 0.0 -0.03986742641091349 0.010058774117222944 0.0
96 2 12.938480489296209 15.746374310924699 0.0 0.08153884019414935 -0.04214749340826183 0.0
97 1 14.732297260480795 1.882261440973401 0.0 -0.12007691766089511 0.08411410886838248 0.0
98 2 9.522225623239862 12.86023401931584 0.0 0.09300647140057036 -0.05201805197690742 0.0
99 1 14.120477532697592 14.4533980519597 0.0 -0.11858746886564094 -0.08070048549239736 0.0
100 1 3.6174747016324322 6.465650624934694 0.0 -0.07081591697402802 0.04421037301715303 0.0
101 1 5.174302665407025 19.605574204407024 0.0 -0.029311920117349906 -0.05088291054486226 0.0
102 1 7.737813678099781 3.334942132184587 0.0 0.03901596879335585 -0.05757869646639607 0.0
103 1 1.3922062738457253 12.634419826041075 0.0 0.1494546161821567 -0.00847798126214735 0.0
104 2 16.441243862303455 12.257624379785357 0.0 -0.01424263070964529 -0.11592618219338302 0.0
105 1 14.606583955093887 12.013534205701744 0.0 0.013716871926630141 0.0033489736409474473 0.0
106 1 8.234527606957833 0.7661851596755103 0.0 -0.11172906371233893 -0.07667533593620197 0.0
107 1 18.980858824862796 13.920133374277992 0.0 0.10414019005792352 -0.02802631785656806 0.0
108 2 16.022809273177803 19.270870101709438 0.0 -0.10459664971722597 -0.02766255874125291 0.0
109 1 3.6583869489358167 15.364081453139534 0.0 0.06598020872949063 -0.15672916601667708 0.0
110 2 17.44730696346475 13.064710603487956 0.0 -0.05316655183221896 -0.058360952122183285 0.0
111 1 15.447424216053477 8.061275257115941 0.0 0.12063628335135368 0.03435492549096433 0.0
112 1 7.781228113406153 13.818281209666944 0.0 -0.008184158295416823 -0.08928746258005796 0.0
113 1 18.592634505439705 9.9092889567588 0.0 0.047254235813811565 0.03472195774759396 0.0
114 1 4.354465085125085 18.357396084410055 0.0 -0.06307562012717376 -0.002758598767821749 0.0
115 1 19.099766571826162 4.0521974965383025 0.0 0.024992134783683933 -0.16230066766433976 0.0
116 2 8.977050767505197 5.774552239869057 0.0 -0.016520798059928232 -0.06879461981394433 0.0
117 2 13.885928861757725 11.17062037923161 0.0 0.005535857624677286 0.019849066059596618 0.0
118 1 17.214796650218585 14.877821592639153 0.0 0.09306076732675551 -0.03682142178320422 0.0
119 1 14.405948405477632 5.337989610128089 0.0 -0.023444024450691308 0.05284475205693437 0.0
120 2 6.81274531585017 15.97492821059061 0.0 0.011667092151236886 0.11750930963295696 0.0
121 2 11.440155873030058 16.58250335965948 0.0 0.008747844529895877 0.025413052493671966 0.0
122 1 14.550280195352697 14.963302626399129 0.0 0.037157787192945095 -0.08141770217742572 0.0
123 2 0.10233072886260611 15.389436787988224 0.0 0.03962080121476541 -0.04085355618629535 0.0
124 2 16.500154363423015 1.8248374992798464 0.0 0.02749501778150229 0.006260431250887319 0.0
125 2 7.419597934018706 12.692837351730985 0.0 0.07299029519387774 0.04396169953412517 0.0
126 2 4.386642850656035 5.715434380571713 0.0 0.07256204720678214 -0.04817262240507435 0.0
127 2 7.010902227394218 10.664641280389558 0.0 0.10997060323700018 0.05491723506382617 0.0
128 2 6.8020169992805375 8.23992594962823 0.0 0.09366170587986512 0.017815113457238584 0.0
129 2 11.023570946305195 7.162142519289169 0.0 -0.03605920650870303 -0.021169681860398113 0.0
130 1 14.046041469565857 15.447707381039459 0.0 0.03285307729162785 0.057506898953390284 0.0
131 1 10.614601052655953 15.781586715996161 0.0 0.042684321618238916 -0.05744234950986957 0.0
132 1 0.6465025853212649 4.289252685215201 0.0 0.09208534198230524 0.041246630112991754 0.0
133 2 8.282211332579445 10.676578258122014 0.0 -0.031347013257168786 0.04449122209988351 0.0
134 2 10.377827887204976 2.4873606513133906 0.0 0.08134914603738663 -0.006697050961498204 0.0
135 2 7.065572735169959 4.8669052744478885 0.0 0.01931923018824756 -0.1095173231164691 0.0
136 1 14.259685568740151 12.858411775708339 0.0 -0.03638106283387886 0.05253627652159599 0.0
137 2 9.692921788246666 1.4646118667594954 0.0 0.0289553593889074 0.013880798821033422 0.0
138 1 3.651603207009342 2.6914513753350726 0.0 -0.058906704472719035 -0.09417610051321752 0.0
139 1 7.910502787386044 4.129324327894227 0.0 -0.030503651909080408 0.017461335400138285 0.0
140 2 3.274182633102141 10.958153561952608 0.0 -0.04905600070088249 0.034855694020353406 0.0
141 2 9.636853628292219 4.705430092358304 0.0 -0.04884760134049697 0.03942038828980607 0.0
142 2 2.035196639568043 16.981284379839924 0.0 -0.07470524441331011 0.018092099262846703 0.0
143 1 15.400451382074232 5.903431535953334 0.0 -0.15027596007647048 -0.13121813284619654 0.0
144 1 14.642967630821147 4.725696582537334 0.0 -0.020217009907306772 -0.024833382071607683 0.0
145 1 19.463645730920646 17.04147614995402 0.0 -0.06450850356055163 -0.0011146162602798174 0.0
146 2 14.0241036230747 9.562011664173058 0.0 -0.029428080249728678 -0.07041493551957824 0.0
147 2 4.546971230831856 7.09862897627068 0.0 -0.013996818188729597 -0.01227919206725927 0.0
148 2 14.924321234719075 13.735309648319857 0.0 -0.056620105045916275 -0.038946563357504585 0.0
149 2 14.982330498768217 17.297572430905664 0.0 -0.06438102047265999 -0.01789610605460865 0.0
150 2 8.616087862503178 9.388899713626696 0.0 -0.06124831612649601 0.01699589771878327 0.0
151 2 4.285572249410213 11.908026693130381 0.0 0.04873095915571561 -0.011315513457019885 0.0
152 1 3.6999793690496885 18.48095419834808 0.0 -0.01913829536352052 -0.04219817937188668 0.0
153 2 11.107477611746248 11.152301449817509 0.0 -0.014158599016513517 -0.020030555574854784 0.0
154 2 1.324106549038249 14.954771210183992 0.0 0.06790108775883398 -0.019990177509422214 0.0
155 1 14.128713151454182 2.1892140964473716 0.0 -0.0012907752541537376 -0.08933889009375258 0.0
156 1 8.84428874840086 7.742972716814943 0.0 0.0030425622266127728 -0.10969533094744005 0.0
157 2 0.17149796054667144 7.582874564524455 0.0 -0.014060612425252805 -0.023543559324975254 0.0
158 2 11.79518389972833 6.209328319249455 0.0 0.1126995581521003 -0.05671303765438726 0.0
159 1 17.385957444189824 10.159920868998276 0.0 0.06502811207601193 -0.12473328206979845 0.0
160 1 3.925170863964117 4.736176288520389 0.0 -0.02886944700219634 0.0805520337618522 0.0
161 2 5.218140188711617 13.89095864284388 0.0 0.05539844684872817 -0.020029611786432817 0.0
162 1 11.062073802366681 13.627899383138946 0.0 -0.08293657689421909 0.09469080366960823 0.0
163 2 10.997610536091786 8.428694732991183 0.0 0.042687641805419944 0.04736728279825985 0.0
164 1 5.110991339385185 4.2216874319044315 0.0 -0.0003676654706487915 -0.10979571600695515 0.0
165 2 0.5782863162275403 11.124649942283433 0.0 -0.08015324886772585 -0.00219165045376352 0.0
166 1 19.214296584571542 19.10876430253645 0.0 -0.0700740292432549 0.07806266067267413 0.0
167 2 3.0356210321433954 8.704789357824906 0.0 0.03084365700185289 -0.06707517065258294 0.0
168 1 7.903926924612693 15.76046923174787 0.0 0.06973044217948417 -0.007482368396093043 0.0
169 1 13.846056285564032 4.956900940922664 0.0 -0.01677832122192219 0.017492841101750565 0.0
170 1 8.954832255971507 7.071557922906519 0.0 -0.08054347675490832 -0.008461672227481376 0.0
171 1 10.866213362903865 18.181199653130236 0.0 -0.03554754215357598 -0.152644016764517 0.0
172 1 8.158194337914303 0.0940901821857036 0.0 0.12807362929014787 -0.001404107185393167 0.0
173 2 14.9831766777019 10.389672544493182 0.0 -0.03581477106726344 -0.04457655030732518 0.0
174 1 14.10668370879408 4.321703776329932 0.0 0.006700261162447676 0.04800491349381675 0.0
175 2 1.2035776426202638 6.788758995986949 0.0 0.024882581908016326 0.034219949806253244 0.0
176 2 1.9568456863449217 2.4576604410115057 0.0 0.016118852683842243 -0.007141354795822491 0.0
177 1 10.088122883571833 5.771714073190332 0.0 -0.010539048518321973 -0.012872410877935558 0.0
178 1 11.900822487522957 12.644731355266789 0.0 -0.18086185497411136 0.013655282902125788 0.0
179 2 17.938483012049716 0.4092685483059053 0.0 -0.11355503450178682 -0.11526597407781004 0.0
180 2 11.674412771313287 15.348699873436516 0.0 0.022467703412965608 -0.005898618873917748 0.0
181 1 11.433532620601213 2.8081971266207777 0.0 -0.12341288472113925 0.0683092475372721 0.0
182 2 10.820744595066062 9.8437093307615 0.0 0.03938346890620371 0.0837545819225931 0.0
183 1 17.468918690608938 11.984887322745847 0.0 0.032723173557221936 -0.13605636054837209 0.0
184 1 0.9511009136745113 0.7374191860485819 0.0 0.07663798707977305 0.040952751652968945 0.0
185 1 14.679630885560323 2.564467642453336 0.0 0.03993777824970279 0.11210430589036006 0.0
186 1 18.012637244227978 13.969708002784436 0.0 -0.07818568895514512 -0.15900619160729504 0.0
187 1 9.056424908911781 8.381240097388917 0.0 0.004183256564470662 -0.10167778701724112 0.0
188 1 9.620868749882431 17.837282910178537 0.0 -0.11159087770431159 0.05725619040124401 0.0
189 2 1.917939529246879 11.053138481288956 0.0 0.0170541496876934 0.008090281898949185 0.0
190 1 2.474007354983491 3.4263024346518813 0.0 0.04951779769067242 0.09127005931424217 0.0
191 2 5.936139566076188 7.192690985506088 0.0 0.0030842777337106242 -0.0519668289559745 0.0
192 2 6.42795975843902 9.46621839998104 0.0 -0.09159301560363448 -0.010989649243057885 0.0
193 1 3.5751602327385106 2.029246041840422 0.0 -0.04177250987092749 0.02114947251586173 0.0
194 1 16.83618498382244 0.24636729680782987 0.0 0.037188372241352435 0.027287880811121823 0.0
195 2 18.509984918571636 12.314311451616241 0.0 -0.00030556133965984835 -0.05220833967678431 0.0
196 1 19.159059395498744 14.571249950221885 0.0 -0.015135550183916794 -0.005418477415722141 0.0
197 1 0.2922888313698908 2.1996578552826755 0.0 0.03412214411558017 0.013999763925241453 0.0
198 2 9.431111101440807 3.4695110824629403 0.0 -0.049473384618628935 -0.040185349423474674 0.0
199 2 12.300736967591657 7.51532714445803 0.0 -0.006006139434782953 0.02124973772818714 0.0
200 1 7.952536101491374 18.08564110467152 0.0 0.03846327501279079 -0.08827113778122875 0.0
201 2 12.713179658424384 13.328589466014204 0.0 -0.03798343356003204 -0.025736280078129458 0.0
202 2 12.555694482304876 1.548348417737111 0.0 -0.058606075462070036 0.09172848707511358 0.0
203 2 12.636537771062404 18.77961043165108 0.0 0.011696011902312483 0.06106430298173283 0.0
204 1 14.72833801889243 5.922834096898772 0.0 0.10605568144293868 -0.031819477877361606 0.0
205 2 6.185992585739836 4.0276762831438555 0.0 -0.09639199450074928 0.04195098158396309 0.0
206 1 5.3200829447788855 11.54534543363931 0.0 -0.09925662938650076 -0.02823558582945363 0.0
207 1 18.51142504863 14.39971319108059 0.0 0.03750398065971719 0.005176481960013404 0.0
208 2 3.8422061287007225 14.297609130427205 0.0 0.05197172571850062 0.017855701840945846 0.0
209 1 0.16968232209479195 1.5660761463460042 0.0 0.062312104858199616 0.02705869527876907 0.0
210 1 1.1961707154432746 4.668014042535098 0.0 0.0634163019057121 0.026643627080647953 0.0
211 1 17.16176533249818 11.374845097933688 0.0 0.03476669123408371 0.061997345192628124 0.0
212 1 0.8311092505264851 13.012354124788489 0.0 0.0636720589047137 0.054157762201443437 0.0
213 2 9.575227532615706 10.296628614188544 0.0 0.03788807049539658 0.03772514798995831 0.0
214 1 8.447187684061223 13.053154173248956 0.0 -0.10154827024598923 0.0866417751633599 0.0
215 1 10.840651770092842 17.49021209855343 0.0 -0.05595943782935003 -0.08969200440656151 0.0
216 1 7.727475941479815 2.001901371727397 0.0 -0.06227741091632575 0.08392679492741467 0.0
217 1 5.054053769390458 12.775297975032773 0.0 0.0033226043498852703 0.1038191962995536 0.0
218 1 7.159284898420387 17.007234516069033 0.0 0.07410396988000818 0.05542752435623879 0.0
219 1 0.034916641216395664 4.020280344472615 0.0 -0.03573108604527361 0.04324208272094522 0.0
220 1 18.923681347435842 19.70148856798832 0.0 0.04662825685475933 -0.07081033761873369 0.0
221 2 7.258380779576552 7.029293318619185 0.0 0.009915581242566703 -0.013832165250135474 0.0
222 2 6.71461221693288 1.6566440326753604 0.0 0.007841937227903084 -0.052437062619360694 0.0
223 1 9.671132275601074 15.179991312729815 0.0 -0.0987140649292552 -0.06193698776132027 0.0
224 1 3.247048603524763 18.007052456111 0.0 -0.087025568206933 0.0056028434601710485 0.0
225 1 16.113610210460514 6.995580687051182 0.0 -0.035172886922517035 -0.18023735711042974 0.0
226 1 17.27293063458447 9.490986669670013 0.0 -0.0808565527734236 -0.006903631465600507 0.0
227 1 17.986734540362725 9.602468478931328 0.0 -0.13791613014685355 0.07923236613254452 0.0
228 1 11.55442579857398 2.123014166868792 0.0 0.08989311102627934 -0.03421705345342887 0.0
229 2 6.0457069184513825 16.958683339893078 0.0 -0.07258389837032522 -0.013375250088763018 0.0
230 1 17.646881986926633 16.139308856542424 0.0 -0.078833935048098 0.04645232102681682 0.0
231 1 1.248118567309814 11.973911916179368 0.0 0.16736016583955513 -0.05187735722345016 0.0
232 2 14.989875718634154 7.006420306001134 0.0 -0.060782090630241724 0.07807918564378344 0.0
233 2 4.782954694669332 15.10573597723584 0.0 0.06388589348770116 0.0011614069952517942 0.0
234 1 11.777055517205037 12.008470582309915 0.0 0.051874346154995664 0.03603012415916379 0.0
235 1 15.890046567335828 6.352749812373635 0.0 0.07603822740442265 0.062119057907944815 0.0
236 1 0.12124998720478297 6.467567145521967 0.0 0.015457438284039322 -0.04826898130286438 0.0
237 2 3.012762301507469 12.198913087309448 0.0 0.018607961006186835 0.057021748811539194 0.0
238 2 1.6186635448121627 18.331219844783877 0.0 0.001585140735601355 0.06801555119003581 0.0
239 1 16.991165860230005 0.9004792223125686 0.0 0.1477327758972883 -0.01261376075979116 0.0
240 1 8.242475567193344 4.8403816134767474 0.0 -0.013828401987103781 0.09669340462500098 0.0
241 1 8.421518543798559 8.256845854346421 0.0 -0.01917762237699294 0.1607739495221264 0.0
242 2 9.875482087033975 11.579043947619335 0.0 -0.049651858592836655 -0.03198498775523939 0.0
243 1 8.294686473032748 7.3966671386206935 0.0 -0.026775207003872776 0.0009022918599486025 0.0
244 2 10.101279514033923 18.952587235760827 0.0 -0.035890012916185196 -0.0880497717722147 0.0
245 2 5.295455922137238 1.8952216644747444 0.0 0.036862700243114506 0.01379093060568158 0.0
246 2 8.957868332671552 16.01774439579326 0.0 0.021718169966367894 0.07668367620370911 0.0
247 1 7.630958942055818 17.476432668432246 0.0 -0.11903632298723658 0.009691565272190185 0.0
248 2 12.14881881503993 5.0436636017875625 0.0 -0.08085135741145928 -0.014526991395441646 0.0
249 2 15.05427707400496 15.94766448396396 0.0 0.10540799665969466 0.009215893960339566 0.0
250 2 8.525919902359554 14.832243544488366 0.0 -0.14737549309375397 0.019003243513903 0.0
251 1 3.555784199471816 7.747809864307067 0.0 -0.07321323238496419 0.03025507765785651 0.0
252 2 5.847733776371769 0.7507244409473142 0.0 -0.006049780249336138 0.00796036230525938 0.0
253 1 15.113522841750944 5.283321305850292 0.0 -0.029631398842269414 0.044988012103942904 0.0
254 1 14.136977453827331 6.255111547305781 0.0 0.08308232722671167 0.022958112269542107 0.0
255 1 7.551301606389218 11.59867295333885 0.0 -0.001976651489203812 0.0037126083279053076 0.0
256 2 1.6166678759265354 13.750649650837934 0.0 -0.15506680577607568 0.05420632108137715 0.0
257 1 18.0623746549588 6.22522659272313 0.0 -0.12620861633057998 0.12268820055600742 0.0
258 2 6.1440750427947055 12.998159128039422 0.0 0.10529755071388411 0.028895683832309317 0.0
259 2 13.775708496474477 3.233873771186606 0.0 -0.013533069915154097 -0.08745585755730395 0.0
260 2 5.795729086555315 10.578737593173415 0.0 0.036883781527714134 0.019894983274922184 0.0
261 2 9.9024479643737 9.035745410361356 0.0 0.024843118203721398 0.05906451889815177 0.0
262 1 9.829623693264622 13.907469207118153 0.0 0.08424617690971535 -0.0015430133191447033 0.0
263 2 8.734334439495711 2.4392930995603086 0.0 0.024826246252931915 0.10107187242862195 0.0
264 2 1.9191857615378694 1.2234416907057504 0.0 0.02164430905455768 0.043471533670183755 0.0
265 1 18.055364170585506 4.960693611599684 0.0 0.07128439569067782 0.006657709381613617 0.0
266 2 16.151120409046843 18.00022127149863 0.0 0.025348221082585543 0.051580064658636154 0.0
267 2 2.850202978627031 13.507442249373103 0.0 0.06109931883663892 0.034717916764853196 0.0
268 1 8.359552365239436 3.6044775069632076 0.0 -0.12461700714255776 -0.042238451875908835 0.0
269 2 11.653285824476287 0.6918008335322104 0.0 -0.0066418165946305376 -0.06064008696164367 0.0
270 2 0.52588416170765 8.81637000780274 0.0 0.030661570557736523 -0.09589461561592406 0.0
271 2 17.505704350612604 17.804338990789564 0.0 -0.04116995646389062 0.004456772043825366 0.0
272 1 13.594867748563535 14.032814803067149 0.0 0.08352513365776922 -0.007307171766599503 0.0
273 2 10.800540677673645 12.527817860711467 0.0 0.00828035531740662 -0.16698656664332318 0.0
274 2 10.655194833270558 14.648153335178089 0.0 0.028257052592177395 -0.007785618768821883 0.0
275 1 8.59826488717042 4.252891733339276 0.0 -0.011788863829569547 -0.08394764416694608 0.0
276 1 13.234235485599033 12.19861994993103 0.0 0.005785047540223583 0.10141010645122658 0.0
277 1 12.845695264492925 6.5230652658991115 0.0 0.062289681123828204 0.14665558055166483 0.0
278 2 5.076394730857551 9.552740962103066 0.0 0.051871566374980256 -0.004257171271376242 0.0
279 1 7.66928939706546 2.6676163608243777 0.0 -0.06506335013924679 -0.1474760420001117 0.0
280 2 9.231611994104812 0.2879928296260277 0.0 -0.0443706792056943 0.11931091792555935 0.0
281 2 2.500988886776405 9.915426946209282 0.0 -0.02246983754068192 0.06957733670793206 0.0
282 1 12.194111485641145 11.508887818381972 0.0 0.004109890520971002 -0.13382472074369633 0.0
283 2 6.47313405167563 6.037328457591027 0.0 0.005627705474959594 0.005563733840446302 0.0
284 2 5.290454675698645 3.1339739433535083 0.0 -0.05376718308384868 0.01881463174516571 0.0
285 2 5.5667811659357405 8.396930479882577 0.0 0.04030546128889006 -0.06027498168206013 0.0
286 2 18.972981499055248 8.909721963830552 0.0 0.0262793291829825 0.005998030284395645 0.0
287 1 12.458697509396332 12.19624702811612 0.0 0.04679127738992534 -0.04535158218355637 0.0
288 1 12.820555262290652 10.883872756547367 0.0 0.05428079047246379 0.11836449819948949 0.0
289 1 0.9564874718524858 2.0443002372977963 0.0 -0.05392438472667459 -0.16713626576184706 0.0
290 1 17.002037169653637 10.716173078957713 0.0 -0.11629487470879057 0.0007827495509006062 0.0
291 1 2.106871659604676 15.766877507161947 0.0 -0.05157607739742247 -0.004606286781347205 0.0
292 2 11.843713207048824 3.8340656051091924 0.0 -0.01913562687078359 0.07977071656403688 0.0
293 1 15.39252327687773 1.7270271825080479 0.0 0.08992813610516358 0.0892838714796802 0.0
294 1 11.630714130749011 14.001938379476256 0.0 -0.019078621165631204 0.013468543888971103 0.0
295 1 13.84497616039335 13.403728249860217 0.0 0.047137185204546454 0.08444100802772304 0.0
296 1 19.23856579307097 16.302160721939973 0.0 -0.013224927242348949 -0.04595532300914561 0.0
297 1 17.272532900941236 16.73971442578312 0.0 -0.11808827806918647 -0.011738796406333003 0.0
298 1 7.475414149038331 9.12629045935001 0.0 0.11423967773044297 0.009920688548963358 0.0
299 2 6.423327179125485 11.763754505717989 0.0 -0.01704117127912956 0.006808589579922884 0.0
300 2 8.595544245547291 11.954507119416645 0.0 -0.036077093121018276 -0.0024188504814422777 0.0
301 2 10.893395446317525 5.002861345850488 0.0 -0.008635946047207714 0.004520735362920341 0.0
302 2 4.060555536732881 19.47188832524822 0.0 -0.0013223314173260205 0.02145078610656395 0.0
303 2 1.102558424068257 16.161992647476676 0.0 0.05792892069269003 0.12398375798088768 0.0
304 2 17.8036489651814 1.7161145368623552 0.0 -0.01379789229029626 0.047718612384142114 0.0
305 2 7.154214440598208 0.5014925216208574 0.0 -0.10348296919113299 0.00701798939543403 0.0
306 2 6.010573529290724 15.033903935333301 0.0 -0.039042962763804694 -0.05209653343734394 0.0
307 2 8.69980779788498 17.24372870876451 0.0 -0.088720528864737 0.08532298939099241 0.0
308 1 5.370798242001404 6.259714469881642 0.0 -0.023071825877573563 0.020333443882624706 0.0
309 2 2.6555689677256487 14.802010431446792 0.0 0.05725802852976491 0.09404416165731275 0.0
310 1 15.30601974732508 4.648444841444559 0.0 -0.24031695406478798 -0.022588894158227825 0.0
311 2 4.849062698295898 17.34725570067213 0.0 0.0831201814723629 0.006524067006567084 0.0
312 1 16.689070496384943 14.47142298228717 0.0 0.014409098726926453 0.028526922774349168 0.0
313 1 13.64221594508202 14.910027856369394 0.0 -0.06702898106082852 0.1094004897286348 0.0
314 2 12.557417805467821 2.8003552862896703 0.0 0.07290629878655713 0.052737735733120746 0.0
315 2 6.690440918295082 18.036446508355468 0.0 0.027553545613958612 -0.005705149474630904 0.0
316 1 19.412671210349078 3.424973610884059 0.0 0.16989263773467844 0.006870483869284489 0.0
317 2 14.37244240903978 8.277314503401344 0.0 0.05204936866137851 0.02928528881340054 0.0
318 2 0.7107426479343852 3.160081766756586 0.0 -0.010854784593083285 0.01291591761262229 0.0
319 1 5.453302464773808 16.003980273877982 0.0 0.06185166132635556 -0.03809614856075808 0.0
320 2 1.7931030264652976 8.84717237068163 0.0 0.08826354544364078 0.015169055776794952 0.0
321 1 7.855014232606635 8.583960798192441 0.0 0.12889862426380053 -0.042571347965833915 0.0
322 1 3.884265263243932 17.832568808575232 0.0 0.11735923919033557 0.016668119851874358 0.0
323 1 5.948030452820098 5.080053741205443 0.0 -0.11342328164740471 -0.06269363040789944 0.0