ITEM: TIMESTEP
0
ITEM: NUMBER OF ATOMS
400
ITEM: BOX BOUNDS xy xz yz pp pp pp
0.0 19.7609 0.0
0.0 19.7609 0.0
0.0 10.0 0.0
ITEM: ATOMS id type x y z vx vy vz
1 1 3.6745043423318995 3.7075447149581735 0.0 0.114276964505394 -0.037117674131640126 0.0
2 2 17.37071901318039 17.617602020970175 0.0 0.007329238949670949 0.022039923262892114 0.0
3 1 19.656508059756266 5.786116128819179 0.0 0.010626631242848471 -0.05448697948429525 0.0
4 1 19.364500539545297 16.523622403000555 0.0 -0.04091567063858548 -0.055598617897245406 0.0
5 1 0.39074147786567676 13.832477915207107 0.0 0.061843682201092424 0.002139141958413017 0.0
6 2 9.428212081220474 18.55840637177536 0.0 -0.08670676163538678 0.049230872161360115 0.0
7 2 6.020239701875727 18.38815711797416 0.0 0.0075922579405284804 -0.005218231571837118 0.0
8 1 17.035883384093815 2.2831762304504317 0.0 -0.058445216640564825 -0.04731527713481289 0.0
9 2 13.74087332723776 8.330376179391342 0.0 -0.031641935095854626 0.028728339400548458 0.0
10 1 8.077055390004094 1.1660728123287396 0.0 -0.01996925760942907 0.04923783288525071 0.0
11 2 12.150262337550346 12.497331631360012 0.0 0.013857993375492726 -0.009413477435097092 0.0
12 1 18.566992434078482 3.1762733876474565 0.0 0.07743211733887792 0.09624347685867772 0.0
13 2 8.260208152888623 3.6109758843164443 0.0 0.05422740047666784 -0.020509513272013644 0.0
14 2 11.227691496180775 15.738908321723741 0.0 0.014825076576074538 0.089661437613642 0.0
15 2 7.6193478490086415 7.000253790620249 0.0 0.05592027365176271 -0.09801146533560988 0.0
16 1 0.7547836262587438 2.602677969081095 0.0 0.13503482575428033 0.05284487697451176 0.0
17 1 4.717291551838895 14.41714460253265 0.0 -0.11744305215985724 0.04756871214424286 0.0
18 2 18.981759194225727 12.17196566256654 0.0 0.09034985596797539 -0.011392847458350218 0.0
19 1 18.993489574183776 17.856063555239064 0.0 -0.0764897573460523 -0.046864119983855285 0.0
20 1 6.257041153968067 0.9827410839242171 0.0 -0.24771798400433992 0.11856299889616892 0.0
21 1 5.630157318831196 19.441163181435112 0.0 0.09484606579501961 -0.04242461901369777 0.0
22 2 5.251000737868744 5.947965994239218 0.0 -0.07289634209590737 0.008297524119296872 0.0
23 1 12.660777680819436 3.1481958721946364 0.0 0.01961508857599504 0.15924239880967142 0.0
24 1 17.906060981909167 3.090353058344966 0.0 -0.09722921338801069 -0.18358193724783084 0.0
25 1 13.809967377916367 14.899954882231647 0.0 -0.1222720708738548 0.011444512938161346 0.0
26 1 4.076737078050558 3.171463683963789 0.0 0.011695776393045287 0.02947425375079267 0.0
27 1 6.153103608677575 11.995713934919253 0.0 0.09798322640172906 -0.13173418458017466 0.0
28 1 19.067277253017632 7.093466252719041 0.0 -0.06175696377498785 0.099320463846315 0.0
29 2 17.329929626089395 5.1343425776449605 0.0 0.010366750488075765 0.0968286312046668 0.0
30 1 10.337231311768422 13.539208353443467 0.0 0.08297066918836284 -0.12484282461104772 0.0
31 1 15.584487744535375 6.525257668216741 0.0 0.08999409250394305 -0.10147770158854383 0.0
32 2 0.06831006608188529 0.33637459360928496 0.0 -0.03584481146632546 -0.020413767571976108 0.0
33 1 16.266203711969602 6.483527276001099 0.0 -0.15959956517565338 0.023302025246842748 0.0
34 1 4.799874392586987 2.0196686554555034 0.0 0.05958577108538876 -0.020585367729732764 0.0
35 1 0.8293083367164917 12.507110668905973 0.0 -0.12945702356633515 0.07609439399830717 0.0
36 2 14.87609572129048 14.526599345386403 0.0 -0.019118161487796978 -0.0025350686961590867 0.0
37 1 3.7341976217355293 19.585345986821128 0.0 -0.047339673109152526 0.03972791353865003 0.0
38 2 12.498886104030154 17.098996754485867 0.0 -0.017546055103375667 0.016357553974447082 0.0
39 2 14.48640762260995 0.014882921822959317 0.0 -0.09777878803461706 -0.03422028361148557 0.0
40 1 4.467695384928666 17.8268051365479 0.0 0.010376216288761722 0.05735187787178988 0.0
41 2 9.329770396913503 2.9153251753517297 0.0 -0.03824933812660653 0.05244639627147036 0.0
42 1 17.971103348461856 1.2257937562442902 0.0 -0.07529426011126916 -0.0431063800929739 0.0
43 1 7.19484284866036 5.371650010460666 0.0 0.03377735475634856 -0.0023678836685658415 0.0
44 2 9.411974582736189 0.06771168368144775 0.0 0.11114038272454158 0.05230462278627361 0.0
45 1 3.78712663439711 4.366834153954496 0.0 0.09417006861640652 -0.03201753045928084 0.0
46 1 12.11375534795954 6.9092641422824155 0.0 -0.06529504936528109 -0.04553569756013498 0.0
47 2 16.90631222607666 3.910038654480227 0.0 0.0002584129145317953 0.07228239853415494 0.0
48 2 0.8426010674091371 7.803516377562103 0.0 -0.0466985533177826 0.09599975931135969 0.0
49 1 17.831011805554567 13.459051153210602 0.0 0.01761094237266833 -0.002958136668081802 0.0
50 2 18.82454305774572 10.013201980556103 0.0 -0.08442377587970978 -0.05549817656769077 0.0
51 1 15.940263416347799 11.320899952780831 0.0 0.09759780154334373 -0.04946455386693501 0.0
52 2 18.358909912563327 14.423831467934312 0.0 -0.043238829137628776 0.038909705458571725 0.0
53 2 2.598053498847561 3.891759244395047 0.0 0.06024208528028696 0.01863543137985864 0.0
54 1 7.433262194469392 15.920822406726566 0.0 0.049827553840018905 0.036217717094669186 0.0
55 1 4.807674401706132 17.167719967631964 0.0 -0.2340615497447882 -0.005675556419817438 0.0
56 1 12.092724614946139 11.430323724374118 0.0 -0.031712920119642454 -0.09575738125656101 0.0
57 1 1.6287715596945012 1.8169041727826003 0.0 -0.023264801233352506 0.023936793104923366 0.0
58 2 11.726288204813232 18.1148220511194 0.0 -0.018597568420885044 0.05973038095614274 0.0
59 2 14.110589311159156 17.217355940222266 0.0 -0.028657837218205976 -0.06330126510300388 0.0
60 1 13.249060909303061 14.490065538144524 0.0 0.14919040034460274 0.10113547639768063 0.0
61 2 6.121919817278247 5.049722221046581 0.0 0.013420686758910335 -0.11527058627128318 0.0
62 1 4.258477877192536 16.804266968610108 0.0 0.1707640551097046 0.019448886279211857 0.0
63 1 5.471604490138969 0.33760130063062926 0.0 0.09337112926394923 -0.01531377661375652 0.0
64 2 3.1789754090292597 7.586459534623367 0.0 -0.002083018891548484 -0.0573496701418211 0.0
65 1 5.145821203189483 17.734531444116087 0.0 -0.07701014091726734 0.14510816067058455 0.0
66 2 2.0509631637402608 8.346758672289438 0.0 -0.01549642141590979 0.00278976418690524 0.0
67 1 11.131601326947237 4.38443575926482 0.0 0.03988440123495247 0.11108685612936112 0.0
68 2 3.3020863574407415 8.826398895250293 0.0 -0.03943113819421205 0.04857645180108503 0.0
69 2 2.691483629672725 13.246294442367857 0.0 -0.11706580425481408 -0.0371549384377653 0.0
70 1 14.273485376096712 9.28967136958322 0.0 0.06924211802599087 0.007079536282309891 0.0
71 1 18.339984511412492 2.545800180319931 0.0 -0.020023794629496074 0.07938761517918817 0.0
72 1 11.642376667456418 7.4148447513127955 0.0 -0.15451960467779555 -0.04197372550973098 0.0
73 1 6.833786848596031 10.134001737061821 0.0 0.0624989415302847 -0.003955360077861715 0.0
74 1 13.492900820492126 1.3559546763248398 0.0 0.037823864003357736 0.05193383540253086 0.0
75 2 10.626676708722366 18.970024084728216 0.0 0.024197929764602784 0.0011593920389422893 0.0
76 1 10.15412098683542 8.987880947040424 0.0 -0.10937746078437577 -0.04178495841965819 0.0
77 1 7.488592813595438 10.407125845315726 0.0 -0.04049713207684429 0.04793450697625276 0.0
78 2 15.15789280481471 1.2214174485461813 0.0 0.085036915467198 -0.04428216510001695 0.0
79 1 9.216473175719857 13.586746275563785 0.0 0.03633014156807518 -0.010118728392931355 0.0
80 2 19.05433622556251 1.327354301418129 0.0 0.01846001998625124 -0.03305565514637375 0.0
81 1 4.312714839749557 1.591173933232278 0.0 0.03743157902007384 -0.06079706413358532 0.0
82 2 12.582163514688439 5.2598652782132165 0.0 0.07440173048984046 0.03551497158938726 0.0
83 1 7.753642055253147 11.049199518439325 0.0 -0.01395827351654641 0.02895208416031517 0.0
84 2 11.530011549288723 2.7226044573028667 0.0 -0.022202757367703937 0.02622037014358612 0.0
85 1 11.438941146074642 11.63370060320867 0.0 -0.057690033776157536 -0.049748713253519775 0.0
86 1 7.002671904270267 7.954913546602198 0.0 0.051063453188884486 0.03978047455446083 0.0
87 1 1.3833761743107407 13.200161606885787 0.0 -0.10048845557127237 -0.061084216789884786 0.0
88 2 7.247448335959779 0.35702791933508476 0.0 0.02049215737221674 -0.011141461807626808 0.0
89 1 19.118924642756546 3.607798746873625 0.0 -0.023565425119600712 0.0032652979439720484 0.0
90 2 13.888775043568913 10.318156060651047 0.0 0.04467618230218884 0.07505484551209698 0.0
91 2 12.727255955675492 13.554158652095099 0.0 0.11276567318332269 0.0306245155441294 0.0
92 1 17.688902726700586 2.3733696588965514 0.0 0.008388725247668876 -0.00708862254269574 0.0
93 1 3.772896663891306 18.906428547152373 0.0 -0.08293314005326004 -0.07718941744524867 0.0
94 1 4.876443888101322 16.482304537470426 0.0 -0.13508846532490326 -0.11928141719478756 0.0
95 2 1.62343726252757 17.82069726563853 0.0 -0.04796709731088514 0.0360624445587372 0.0
96 2 12.436560941710365 15.896712864749041 0.0 0.06078183338070557 0.09084481851701758 0.0
97 1 6.73116004223786 14.822373954069459 0.0 0.09060567995587743 -0.10205286743837275 0.0
98 2 15.027579889102716 10.75372399898569 0.0 -0.01798366952690618 -0.018570724618618462 0.0
99 1 11.166268593433923 6.1691713409571625 0.0 -0.13662968509711518 0.10259066220746088 0.0
100 1 4.782805918188499 15.700709255072283 0.0 0.027016585284958275 -0.04215647649603489 0.0
101 1 3.3252012542870473 10.648531109651051 0.0 -0.050460598309213976 -0.013977699757196437 0.0
102 1 19.735186060122906 15.915476651416537 0.0 0.05238601000512426 0.006818358555214356 0.0
103 1 0.14307137501154407 9.890907813035547 0.0 0.031382113880022044 -0.007340620231404065 0.0
104 2 8.59024264629482 10.30264128729958 0.0 -0.03575946912513177 0.005208286675661046 0.0
105 1 15.532789470846755 8.65925994625824 0.0 -0.07167239534141012 0.07763056513624607 0.0
106 1 15.602374423881702 16.001043152169924 0.0 -0.09617032373926507 -0.04064260837734904 0.0
107 1 14.992754514043542 15.632769610699619 0.0 0.0029760332371995676 -0.0002057263964906549 0.0
108 2 6.992494233359123 17.538171351669657 0.0 0.009951304238637151 0.035534209659094367 0.0
109 1 4.461518359487371 4.486046771497219 0.0 -0.0743964963873642 0.09001366570520239 0.0
110 2 0.3355348887293452 17.92202061517067 0.0 -0.0027035790114216638 -0.05207627850214741 0.0
111 1 4.956434123355145 1.3386910077246958 0.0 0.02794375406678092 0.028575558862619886 0.0
112 1 10.950691710652592 7.297071582898084 0.0 0.16159392918792523 -0.10894496312309417 0.0
113 1 10.709856547361788 9.373443902743942 0.0 -0.04904949580292737 0.04912703407001701 0.0
114 1 4.940685719738739 18.356342116383207 0.0 -0.057817644600842585 -0.15171089969345714 0.0
115 1 16.656465242341937 16.736203565050065 0.0 -0.0030046214917966436 -0.03563538754651328 0.0
116 2 9.001936838951808 11.481313620548034 0.0 -0.04917158903759683 0.07201426582819412 0.0
117 2 13.11291079891963 9.349888713152554 0.0 -0.06342388056915887 -0.0060672769470561565 0.0
118 1 14.116334628278679 1.6968059470452277 0.0 0.06677275289980428 -0.03797773677342783 0.0
119 1 13.76509149800054 5.0273984463059165 0.0 0.03190307276059846 -0.0883950972968515 0.0
120 2 15.28926710404079 17.621185403761515 0.0 -0.04173625240901003 -0.03247950136026525 0.0
121 2 17.193429669549978 0.48209110453375054 0.0 0.022129761846403615 -0.010616322171366184 0.0
122 1 6.870986451230251 14.120456173444914 0.0 0.013913665219684186 0.04825705158142769 0.0
123 2 4.256062741800353 6.818408701270519 0.0 0.06598811397608116 -0.01112610195799841 0.0
124 2 0.46783921941046136 3.6929891495177283 0.0 0.058647052204562386 0.05065900303953972 0.0
125 2 10.318025620957648 0.9129276069702317 0.0 -0.01237197020744145 -0.04597694427099044 0.0
126 2 4.975759098611961 13.31267195608186 0.0 0.04168375470864801 -0.03382403257801574 0.0
127 2 11.083484245611015 8.361216999714982 0.0 0.11910361530233847 0.008589520296961209 0.0
128 2 9.580409274488305 15.37962581232737 0.0 0.03186691313571261 0.07435231079450753 0.0
129 2 12.625661300149737 10.488791737519472 0.0 -0.0028293193399914363 0.090586735377261 0.0
130 1 7.472562089761829 12.208114385095678 0.0 -0.13553767878109843 -0.07930551355413036 0.0
131 1 14.684378222066252 16.23531456823532 0.0 0.01941048575745931 0.07156002756774367 0.0
132 1 13.174058008629588 15.12421180759904 0.0 -0.08919545200530513 -0.06471189750348454 0.0
133 2 0.7761378532446177 5.046767558882419 0.0 0.11573684525889195 -0.06006926336257215 0.0
134 2 12.422230114456907 8.183736850495677 0.0 -0.02122470648471581 0.006614588023987613 0.0
135 2 3.246125469310138 1.495145379502446 0.0 -0.019102755069442413 -0.013235039555250495 0.0
136 1 4.2770408678697915 16.135296970256668 0.0 0.0017778240289420448 0.027730253626841374 0.0
137 2 4.078501045461504 5.485024752761201 0.0 0.04557568709885978 0.01962271824024831 0.0
138 1 15.606263250104927 15.322921640452378 0.0 -0.02355035928577225 0.04914548726071651 0.0
139 1 5.038130066232375 4.156457037361196 0.0 0.08948235038873381 -0.02956610051924401 0.0
140 2 15.89496057266292 13.646573877699955 0.0 -0.01663957646079679 0.04460651911370628 0.0
141 2 10.255893846176113 16.491343397480552 0.0 -0.058829822135441176 -0.039430126995602596 0.0
142 2 15.630099530428495 3.55288658497563 0.0 -0.0076491961395290416 -0.05840884883393248 0.0
143 1 15.26744489029878 16.559558216030457 0.0 -0.05672894097532482 -0.03366116752623711 0.0
144 1 17.13688265023954 6.1953216610250665 0.0 -0.20422649267636633 0.016989366017240957 0.0
145 1 10.99980521019804 9.962360950364681 0.0 -0.0699648489112304 0.06366778774942992 0.0
146 2 18.3029035698685 11.141395092327729 0.0 -0.06950225785533111 -0.01550885446212104 0.0
147 2 5.910738931249671 16.96763693942321 0.0 0.0031481590893723444 0.048633193358957376 0.0
148 2 13.164232597994515 18.14006945394148 0.0 -0.028120592499279933 0.08398572410480043 0.0
149 2 1.7562494148601473 2.9727384950567326 0.0 -0.06933230007970273 0.005696316837439928 0.0
150 2 8.580259021718014 16.30930467780124 0.0 0.034116661680206585 0.011795474185539168 0.0
151 2 13.560983413880898 12.41190459215733 0.0 0.04764331408883446 -0.07368925529347757 0.0
152 1 11.562271379925262 10.992757935643068 0.0 -0.053606335013250184 0.006371528956412448 0.0
153 2 8.201309012333914 13.898876712069326 0.0 -0.07743818501293806 -0.09334224769660869 0.0
154 2 18.676262780542945 15.66805021908712 0.0 0.029720701267315887 -0.09791547398270797 0.0
155 1 1.0665189513796018 13.799860374677944 0.0 0.015635929153654266 -0.050061808223672545 0.0
156 1 11.54106987634073 5.619568143500721 0.0 0.04672807953329521 -0.016617135825926128 0.0
157 2 14.814117956962649 7.843546321108706 0.0 0.06101016702047233 0.03240487847699799 0.0
158 2 13.532775390988467 3.9232720132178063 0.0 0.0037582179912344286 -0.026984063139086346 0.0
159 1 6.566843529542076 11.444055469378807 0.0 -0.1429565002607207 0.019375421607347332 0.0
160 1 7.228226338838819 15.27210547750446 0.0 0.048798656543381044 0.033106128206254054 0.0
161 2 18.00624351743058 6.854506114186546 0.0 -0.00702997428196586 0.008353705822630288 0.0
162 1 16.3445756001104 17.996079593740745 0.0 0.010780287879105413 0.017019895184948824 0.0
163 2 12.505830177779421 0.7754267999963728 0.0 0.056278444613337385 0.00037104369741577535 0.0
164 1 16.541645516399388 5.879759286682785 0.0 -0.04314334943235711 -0.0668185615706181 0.0
165 2 1.9413391104325475 7.060184995812365 0.0 -0.00320913767532138 0.0211187041951748 0.0
166 1 11.369098634981825 16.90423258754682 0.0 0.07202328345114539 0.026250135547704747 0.0
167 2 9.674648210723735 12.611798647181972 0.0 0.01737752184082664 -0.017368126985113613 0.0
168 1 9.78532919130769 13.9320447140245 0.0 -0.0266224580637378 -0.07034374934632552 0.0
169 1 18.09518234513 12.840890644114927 0.0 -0.0102696850735131 -0.23509935118336803 0.0
170 1 2.726065866827553 18.058457174843017 0.0 -0.07499064117265891 0.06769877665232707 0.0
171 1 4.9535003764695436 15.048082656382435 0.0 0.07877254163011707 0.05332065454493217 0.0
172 1 4.37583776859439 19.25286906892822 0.0 0.0738215548113421 0.08204754072981475 0.0
173 2 9.909995330595752 10.1544638698406 0.0 0.08404568991262965 -0.035893203068077424 0.0
174 1 19.48870855661149 7.709210803637292 0.0 0.02479950567205075 0.04180242484283148 0.0
175 2 19.57213722397252 14.778056392387773 0.0 0.03959394363319757 0.014326549090313249 0.0
176 2 13.66984179674838 2.6832685464444226 0.0 -0.01801893924323317 0.03877708465208063 0.0
177 1 14.811457944732625 2.8043705895401145 0.0 0.05107204426657045 -0.05617017563471575 0.0
178 1 0.7009186935114242 10.248069256819463 0.0 -0.04164176913295764 0.03521090373754486 0.0
179 2 0.8589759185168329 19.097024568617687 0.0 0.11392513466698137 -0.07285655425694502 0.0
180 2 6.247278406227894 13.104226434166737 0.0 0.025739341989721134 -0.004548078326303687 0.0
181 1 14.503590841191084 3.3923905318265706 0.0 0.05791157164784316 -0.021416544663833113 0.0
182 2 8.25027686061304 4.97758347335731 0.0 -0.051463969436227476 -0.04490524951531037 0.0
183 1 4.338592664668627 0.21267602911684474 0.0 -0.02254045409851016 -0.1408481259411846 0.0
184 1 2.6382266707513535 17.401951777550607 0.0 0.10791259904487625 0.09170136654166898 0.0
185 1 12.5165783830444 6.357537227468728 0.0 0.07777400865098182 -0.036171374202768294 0.0
186 1 2.1433856889352634 1.3602784775494376 0.0 0.16594706335819842 -0.07150934997454128 0.0
187 1 6.0563733638012245 15.891427465795356 0.0 -0.14943850658234606 -0.05715930945713632 0.0
188 1 5.547180135415521 15.372301130404155 0.0 -0.017520324685139414 -0.13778026396758278 0.0
189 2 0.8076344934328586 6.419123339615518 0.0 -0.06693062124113994 -0.03127997963412561 0.0
190 1 4.325244042274742 18.535467977868553 0.0 -0.15552815161692643 0.14874388264556002 0.0
191 2 11.86049646113454 9.297186667308981 0.0 0.020264142003759304 0.0167093005685399 0.0
192 2 17.70061177664279 16.4075915694202 0.0 -0.057188613673644174 0.05283073806503395 0.0
193 1 7.0545581030420355 10.92243720476637 0.0 0.03493853313506734 -0.01132762322504739 0.0
194 1 3.369474396008858 9.954208403974075 0.0 0.008637235937831063 0.016900419736407293 0.0
195 2 10.472655832157619 3.4970208214535896 0.0 -0.05541125781092196 0.053480585141745016 0.0
196 1 4.892428002128613 12.187757597789643 0.0 0.09458259721650474 0.15686405773405399 0.0
197 1 3.184520531507988 19.191719480759172 0.0 0.08155169041770653 0.07505691691824196 0.0
198 2 7.2013780953038316 4.26360168490081 0.0 -0.048282157006301694 0.028653723573201527 0.0
199 2 17.203792567712423 7.87679814649911 0.0 -0.01696927107697624 -0.04501891167249646 0.0
200 1 6.426354378266174 10.7042812454124 0.0 -0.02643571723638747 0.11189337642203592 0.0
201 2 16.074745733078597 4.852286302876602 0.0 -0.07292534893386902 -0.008718745904039708 0.0
202 2 4.440685138888025 9.339640330848221 0.0 -0.030056765366418624 -0.023752196959886805 0.0
203 2 15.948992720641147 0.2490243385150571 0.0 0.014220934802943423 -0.07683216915246321 0.0
204 1 13.39647611586206 11.301530915458562 0.0 0.018019209772475474 -0.02873728407382714 0.0
205 2 3.7976024251908194 15.133286664016325 0.0 0.009031058430864632 -0.041384885655618604 0.0
206 1 14.638855517068283 4.0556833012157085 0.0 -0.06910702725138862 0.03879069987396122 0.0
207 1 0.8257808172473974 14.417493817579025 0.0 0.08204109963956162 0.05269909385158102 0.0
208 2 5.899374094685029 2.0312450023078097 0.0 -0.07224047276050195 0.08222430247861386 0.0
209 1 7.255711390985981 11.5720093219623 0.0 0.026343324344919077 0.06280766769040123 0.0
210 1 14.840879520587311 9.660960686356677 0.0 0.10344748869211536 -0.004213875215800892 0.0
211 1 18.267615992752013 9.10222374620138 0.0 -0.05520065331334062 -0.10433820497163947 0.0
212 1 2.2693650110032317 2.0126629260876103 0.0 0.027127417650497778 -0.05376785725765061 0.0
213 2 5.5134741471151605 7.173132195261801 0.0 0.06314124615772942 -0.020929972763291445 0.0
214 1 14.029315859797512 16.114651132387 0.0 -0.02969813747162089 0.07258560010163215 0.0
215 1 4.881656803809905 0.6574013028591968 0.0 0.06427787878409594 0.01562153935828413 0.0
216 1 3.7264271957239803 0.5022664762091944 0.0 0.0732864093359098 -0.01047401410848458 0.0
217 1 19.731822373629868 7.0845841623117884 0.0 -0.0011914670134947816 -0.06766648859155089 0.0
218 1 14.982320112492605 6.793803043705019 0.0 -0.12882434298701015 0.13015995429756222 0.0
219 1 17.86483657500411 12.16483322232465 0.0 0.11174616716374125 0.04631567767705092 0.0
220 1 13.53472645916946 19.174585677523382 0.0 0.09918213595389691 0.03654141328131515 0.0
221 2 2.2443764024733732 10.838980522646366 0.0 0.061255993138272576 0.0455548223531457 0.0
222 2 9.281195812760975 5.680999821276804 0.0 0.13460680835042801 -0.01437360100581571 0.0
223 1 11.515710208277518 3.8125316382124965 0.0 0.04562806399286241 -0.022518519860965105 0.0
224 1 14.633432966241237 2.160055574851816 0.0 0.007404467270011926 0.18397496759747906 0.0
225 1 7.544241577360179 16.592468508869786 0.0 -0.0418299083525532 0.007111772499803566 0.0
226 1 19.39643594487113 6.471490563349089 0.0 -0.06451693703078473 0.014483607894312522 0.0
227 1 0.6896789858417861 13.209241051386003 0.0 -0.044258640478225975 0.07922775359613587 0.0
228 1 1.207854959352065 15.748870194051113 0.0 -0.01753238877664203 0.04781267112100199 0.0
229 2 13.968143189377843 13.696484630863116 0.0 7.091791507497621e-5 -0.005602943450260481 0.0
230 1 16.157583775567883 11.948076180034514 0.0 0.0031966719225830615 -0.0817836418391205 0.0
231 1 16.574360863275544 2.79924950718758 0.0 -0.07641412189867557 0.02397135006529824 0.0
232 2 17.531234566495986 9.997594115446665 0.0 -0.031016270363801373 -0.12872469740643774 0.0
233 2 9.918853764428029 7.87114172284531 0.0 -0.07961005733109928 -0.0665549681281921 0.0
234 1 8.261301681793983 6.096037564061016 0.0 -0.032667695456034554 0.02382343978679242 0.0
235 1 6.312256099865126 7.954688181662957 0.0 0.029793505632801965 0.12421404610064266 0.0
236 1 6.8077388482916605 12.10946261462537 0.0 0.03996696381350647 -0.15325240965840486 0.0
237 2 7.116602201897035 1.6688375533827515 0.0 0.05149302582839347 0.01022514457368821 0.0
238 2 7.07204211501262 2.9542891393736963 0.0 -0.011547005294345134 0.06376096123318668 0.0
239 1 4.638440949051342 10.400176354454912 0.0 0.05063734877952678 0.1195505533730077 0.0
240 1 4.255997589566097 0.9172315578398007 0.0 0.0846165003137768 -0.0294299011461986 0.0
241 1 19.241092428852276 17.196850168399298 0.0 -0.013847802626014144 -0.0010079982869661739 0.0
242 2 10.533442490935169 17.71834550390225 0.0 0.0947846445001452 0.08796541462707316 0.0
243 1 11.50840770385456 4.952726285332442 0.0 0.02579755713685629 0.15207269898794146 0.0
244 2 10.898204248968762 12.571480027568196 0.0 0.024408118573044445 -0.05639702655180938 0.0
245 2 3.051142132451284 6.327813095161826 0.0 0.06153120824630452 -0.06981604087297259 0.0
246 2 10.15543374849335 6.5729663314751425 0.0 0.09213354560891841 -0.0404286364636987 0.0
247 1 3.9157955758902574 17.408430745675965 0.0 -0.06947789341809212 -0.007293832266703329 0.0
248 2 9.06630288581053 9.100694935797593 0.0 -0.045423662355662045 0.0442876387801015 0.0
249 2 1.9457641434363857 16.569084738922957 0.0 0.04467685636310597 0.021917014409806212 0.0
250 2 8.124574140783198 8.139406439067756 0.0 -0.016971582707777023 -0.03136520551793184 0.0
251 1 15.882687581844511 12.545082666529506 0.0 -0.005517315452658225 -0.026943663701141964 0.0
252 2 8.314882004677417 19.256151725783663 0.0 -0.0001354013017316798 -0.00244730549699068 0.0
253 1 17.655348041245517 15.271370761001183 0.0 0.048335097242354824 -0.02978491738541409 0.0
254 1 1.3598008895400318 10.202311285926733 0.0 -0.02193472421957345 -0.058709383375447455 0.0
255 1 12.481023960634014 4.182322274911942 0.0 -0.015521517724518952 -0.17507395124076916 0.0
256 2 2.8980026985182166 5.059618008797424 0.0 0.010829606082672439 0.0185800249487694 0.0
257 1 1.0955968482321647 15.07462264155452 0.0 -0.009491938083143754 -0.06309922427281703 0.0
258 2 9.316617259969659 17.33061088118021 0.0 -0.008948573639992078 0.0031876796864201374 0.0
259 2 7.194153658989229 18.79097746923897 0.0 -0.03299777182043935 -0.04046870769706493 0.0
260 2 8.205280741767554 17.9499234688876 0.0 -0.022384164197303404 -0.05711804349493035 0.0
261 2 4.1704789215488836 11.38287524170237 0.0 0.059166157341437764 -0.06101026276414418 0.0
262 1 17.64468857866958 8.878516210084912 0.0 0.02802502327120838 0.18005244406751922 0.0
263 2 10.309712133169983 11.466618761596823 0.0 -0.018392647455791375 -0.024261748287058855 0.0
264 2 11.449040091652378 13.672297985963985 0.0 -0.005291124624812751 0.05553499362836195 0.0
265 1 6.320581778350777 19.438121863211784 0.0 -0.04630758655942928 0.05100005235452018 0.0
266 2 12.418645460110575 19.2105336888863 0.0 -0.04694959583393558 0.0015951323233523325 0.0
267 2 9.41162271367164 4.325173940312244 0.0 0.037770905409403505 -0.02780790889861353 0.0
268 1 17.26300289906805 2.9044365963963146 0.0 0.018299984141827312 -0.02617708494696726 0.0
269 2 18.158030189227404 4.187205541533627 0.0 0.0002381744881324838 -0.0598730509376052 0.0
270 2 6.527670432241949 9.016774634624412 0.0 0.03180672062518702 -0.02246809301814431 0.0
271 2 16.212175475127882 10.245233841666787 0.0 0.046101753027652605 -0.028954698745010336 0.0
272 1 15.312795128953063 2.339625014696616 0.0 -0.026092994256313985 0.06439219608549411 0.0
273 2 16.550320733811226 9.029236776719458 0.0 0.017236577033484177 -0.11948622944034137 0.0
274 2 19.334482947121238 4.696501616266715 0.0 0.0242364904533312 0.029474928552806038 0.0
275 1 16.870683086641616 6.821190283352091 0.0 -0.17025042175588492 0.11089288797292524 0.0
276 1 11.408323627477838 6.793982204602806 0.0 0.048685943015772185 -0.02009834359059238 0.0
277 1 5.035229405196198 4.849076847625851 0.0 0.016527732013460063 -0.05215678873581402 0.0
278 2 18.45589746471472 0.18325388027067688 0.0 0.06750827271597491 -0.0017028502997485182 0.0
279 1 15.984840150780911 14.763325394458963 0.0 0.04020654139305796 -0.1637262568210004 0.0
280 2 0.9841880833896182 9.147550343023322 0.0 0.06875993806877513 -0.012303933234368573 0.0
281 2 0.6758186053494932 16.73409189477725 0.0 0.04873808676800894 -0.05009124070614341 0.0
282 1 1.7309848970199861 13.784066763672893 0.0 -0.01133896155965074 -0.01400414284208175 0.0
283 2 9.163007109710021 1.4529178951887476 0.0 -0.051650824529321425 0.0367113460365565 0.0
284 2 18.44504249691353 8.023380143056457 0.0 0.09840878050191985 0.03768139445966756 0.0
285 2 2.132455288668832 18.982026481164162 0.0 -0.014463564331847074 0.031222631973400482 0.0
286 2 5.445089060528147 11.193386151055504 0.0 -0.03155464515022408 -0.054006296913643836 0.0
287 1 14.102295011181196 1.043098726517284 0.0 -0.06896680995360273 0.125963521486153 0.0
288 1 9.231767283514323 14.324665756808313 0.0 -0.012493528711576156 0.013258826522849805 0.0
289 1 16.309740572817617 17.303040097076668 0.0 -0.055391329434403155 0.038698540607595866 0.0
290 1 13.343591116895563 0.04190839159805862 0.0 0.04990918559268528 0.04987639563425732 0.0
291 1 11.844932944962983 6.239466425795533 0.0 -0.07495805615674175 0.10025683084905751 0.0
292 2 12.612328907197101 2.0345934315857463 0.0 0.034158234518668014 -0.05176157743845996 0.0
293 1 5.408025000010295 8.850406853813698 0.0 0.18414961387205986 0.05173979333369902 0.0
294 1 7.923781261791289 11.694877050662658 0.0 -0.08994236564185017 0.025257594698231526 0.0
295 1 1.8347913836774326 4.680684443702591 0.0 -0.02387431056714939 -0.08263600047585136 0.0
296 1 13.576861705724315 0.6655974322391633 0.0 0.06039398911958751 -0.10822100362736223 0.0
297 1 13.55484215392309 15.66613709377314 0.0 -0.009112225727317678 0.017521524558498383 0.0
298 1 14.883173602611677 8.958819299879654 0.0 -0.007626658868359 -0.08651671888891896 0.0
299 2 14.387606466844383 18.491676513112786 0.0 -0.03289992862797005 -0.047772420670638784 0.0
300 2 8.454932545981595 12.679106315668992 0.0 0.026920488137909614 -0.005845032283860822 0.0
301 2 18.5473551356835 5.70933641154864 0.0 0.03529468409443751 0.0838762953396579 0.0
302 2 1.3857727933772939 0.564938084779642 0.0 -0.059323537129721764 -0.08630610047922582 0.0
303 2 19.621171650453586 11.005309695418592 0.0 0.005479902978711238 0.06565168017549555 0.0
304 2 2.6441735128833397 0.380698178720786 0.0 0.048635553670922954 -0.006125305384785275 0.0
305 2 3.0205227517475453 11.769245400644516 0.0 -0.046991081356702824 -0.03286555933597265 0.0
306 2 6.065405440526748 3.7627223317753993 0.0 -0.026692638329200855 0.0027103801763198212 0.0
307 2 3.790918657236711 13.866412632271595 0.0 -0.08171988437211479 -0.0031985522340341513 0.0
308 1 8.430036656782299 0.5902816047895394 0.0 0.049019011409761976 -0.09903356159603618 0.0
309 2 10.466511939324088 5.27306399385019 0.0 0.005701652783263075 0.010793554008198336 0.0
310 1 14.637707832954526 11.787300853075891 0.0 -0.04939554005916611 -0.06311882871096279 0.0
311 2 19.42518282244779 2.5202934212419676 0.0 0.0024656297877655533 0.027308570150067258 0.0
312 1 7.220680955722066 13.536527646434765 0.0 -0.11528912802266701 0.11298277067948566 0.0
313 1 6.132928948455513 0.3192427693794253 0.0 0.019618794106450864 0.019185297717675732 0.0
314 2 11.376070793014774 0.2022932189101471 0.0 -0.012831536014790087 -0.09977673491469333 0.0
315 2 3.8939097980433313 12.638232925317679 0.0 -0.025327914811086805 0.00725332516903978 0.0
316 1 5.539142074503372 12.295128785822808 0.0 0.0009872227879477496 0.05175125807546626 0.0
317 2 12.128679136969438 14.707967887735185 0.0 0.011080213069849099 0.00422572640042375 0.0
318 2 16.643632687319236 15.647807168327851 0.0 -0.14136376155651398 0.00016823051989799866 0.0
319 1 12.773694832147374 11.59138565897436 0.0 -0.09427304379727489 0.04532472609057358 0.0
320 2 16.881820589145054 18.9569147351746 0.0 0.13318675302084013 0.03033067250653134 0.0
321 1 13.389540030963255 16.393169672889204 0.0 0.04328948276858634 0.07474538115891584 0.0
322 1 4.945892505100098 19.693999412979913 0.0 0.008702586253061258 0.11486302649894316 0.0
323 1 18.45031028107815 17.43207713225965 0.0 0.10815885156944616 -0.05888598961485586 0.0