ITEM: TIMESTEP
0
ITEM: NUMBER OF ATOMS
400
ITEM: BOX BOUNDS xy xz yz pp pp pp
0.0 19.7609 0.0
0.0 19.7609 0.0
0.0 10.0 0.0
ITEM: ATOMS id type x y z vx vy vz
1 1 1.8758553906470772 15.716595431279893 0.0 0.025117179095050998 0.0816090755998761 0.0
2 2 4.217546165520806 19.539541013914402 0.0 0.07306970034595571 -0.015645768663357207 0.0
3 1 19.7501231039046 14.90791942993283 0.0 -0.005368901083413745 0.06989338812941791 0.0
4 1 15.762945357357905 10.086602199532043 0.0 0.08254959321897641 0.032155601205581426 0.0
5 1 12.804530397861859 2.216209761222814 0.0 -0.12092322858670965 -0.007214468214770485 0.0
6 2 1.8752804696194314 11.370234654688703 0.0 0.004085809931056897 -0.04952067513738939 0.0
7 2 12.478932189417906 7.631238248141935 0.0 0.0003081919812581473 0.042379063283819594 0.0
8 1 14.554806715557689 13.613930474242752 0.0 -0.1236319230515389 -0.08856241358886374 0.0
9 2 11.147856292339156 11.777614156713975 0.0 0.07118097006396618 -0.05106901646918009 0.0
10 1 18.977129893378756 18.576568865990236 0.0 0.013674472570968044 0.1700227813192238 0.0
11 2 10.987647380566662 13.200792410197797 0.0 0.004984157407188386 -0.020297618367274322 0.0
12 1 12.67586120068223 15.959644152527924 0.0 -0.08354674811319747 0.08387104664041904 0.0
13 2 12.750518568322052 8.923327954432843 0.0 0.03900531311776377 -0.030966176803962325 0.0
14 2 7.39520612677747 17.022072156304315 0.0 0.0036487436261863114 0.01934580993357165 0.0
15 2 18.355431196958275 8.153960567957483 0.0 0.04422308716928325 -0.04074507096003996 0.0
16 1 14.692761610253907 5.535779917527318 0.0 0.013655825435763927 -0.12571791222830625 0.0
17 1 17.215496066542773 15.074987011699818 0.0 0.02433972601253437 -0.1657531066226963 0.0
18 2 7.829506019665671 1.921501865223959 0.0 0.00017740499008588636 0.05692758791432895 0.0
19 1 0.15465336402430915 13.784815349248099 0.0 0.0284094328651728 0.025835463653542154 0.0
20 1 16.13442456554453 5.980591054111984 0.0 0.04715605905650088 0.08503921228132366 0.0
21 1 14.888560359002652 7.579627893554142 0.0 -0.008039000193021398 -0.03049677493442274 0.0
22 2 6.86275709493758 5.6117182526554386 0.0 -0.06537915158860791 -0.036925817450313286 0.0
23 1 13.475850932403459 8.032856553895313 0.0 0.049727311532676614 -0.0897539095700398 0.0
24 1 6.448422807037728 6.663518933295917 0.0 0.020482956654420535 -0.07574677112328064 0.0
25 1 0.6052588479089671 16.333452571431245 0.0 -0.13033645760875687 -0.03990984996388721 0.0
26 1 19.735320693255787 12.276568494845254 0.0 -0.11629083359049533 0.059835077954097246 0.0
27 1 0.12919872677565197 10.42761135948741 0.0 0.0995243932991145 -0.03829380900838675 0.0
28 1 5.598018613195209 12.587387876656596 0.0 0.11002050148503859 -0.07229487398603673 0.0
29 2 13.96432593255216 9.017711995966863 0.0 0.04023746747586425 0.031974154751849906 0.0
30 1 14.4773413729943 17.941886832595028 0.0 -0.03518466083011697 0.00504603198710316 0.0
31 1 8.024002468783674 5.59227907163833 0.0 -0.12259029855198933 0.012259260733982032 0.0
32 2 10.460607000789574 7.966464143148064 0.0 -0.012981253316693791 -0.023035938869291304 0.0
33 1 17.376099727711104 1.5390945929294848 0.0 0.018623646038608388 0.0003123395350189412 0.0
34 1 8.34722409259686 8.227438683786305 0.0 -0.012371427841041142 -0.007679906531975813 0.0
35 1 13.873004477474488 6.635385575693532 0.0 0.08575476380021546 -0.03246915650820169 0.0
36 2 10.480714664947628 2.8707907356797606 0.0 -0.03620597223613397 -0.020565269843870047 0.0
37 1 7.064321820357854 0.5055639782338107 0.0 -0.028462720546701 0.04570677208029804 0.0
38 2 8.833399889084946 6.621720819525334 0.0 -0.0028724862366631253 0.0012154873645354562 0.0
39 2 3.0735515317559305 4.940772106826514 0.0 0.047517636775066284 0.06383398469244492 0.0
40 1 18.1940936288131 14.81675088035094 0.0 0.012994965769325052 -0.1045442438047288 0.0
41 2 2.1478952303333876 9.385788961407217 0.0 0.013401314798487997 0.0016227455429197026 0.0
42 1 7.6092233692306985 0.09735127863823703 0.0 -0.10381906730509237 9.413110655881583e-5 0.0
43 1 18.273031880399056 0.7084034041139464 0.0 0.0409655682926361 -0.004703988397560464 0.0
44 2 19.415890405314997 8.829483845451549 0.0 0.004758219516915389 0.10892521597307582 0.0
45 1 3.323750016039646 9.47298509759018 0.0 0.010878601298540616 -0.04284276943751605 0.0
46 1 11.756334268925798 15.041240318447738 0.0 -0.012184254243488547 -0.043005718662628804 0.0
47 2 7.9032960065964035 12.810502610197867 0.0 0.01462305621414268 -0.024087240240714913 0.0
48 2 11.776283129988583 2.764869116949737 0.0 0.024279270160111114 0.050344588730040336 0.0
49 1 16.28568954957665 4.101782732056012 0.0 0.04371628359711527 -0.1813249951934106 0.0
50 2 16.55331147439392 14.138388979916343 0.0 0.10525664215678264 -0.029150312162430202 0.0
51 1 18.807382630592773 14.554007957909839 0.0 -0.0174420193528606 0.07908752537096546 0.0
52 2 14.96446142094055 15.646471772501853 0.0 0.05945163746959507 0.08554130730511574 0.0
53 2 2.248975176116525 3.810527242818986 0.0 0.016381643583138622 0.09360043276479008 0.0
54 1 18.18149153123191 11.906514582052743 0.0 0.038575019883333575 -0.1249999018752908 0.0
55 1 12.095819955152725 18.83183714041349 0.0 -0.1085809566288007 -0.027967947765372404 0.0
56 1 9.686957301168833 19.462279597675465 0.0 -0.005120870005702426 -0.015453529177946497 0.0
57 1 16.726114396310653 1.3789028103757983 0.0 -0.22056773996687332 -0.01588917604636381 0.0
58 2 2.3238125398045577 12.546842222288618 0.0 0.024384250809304127 -0.003695311152921833 0.0
59 2 8.540260405852257 10.648484467056187 0.0 -0.02349100253971945 0.02369181448180632 0.0
60 1 9.652648776639339 5.069297698346403 0.0 -0.026439189214484782 -0.0012307694441915263 0.0
61 2 9.837556539145591 17.81660724241235 0.0 0.0017335189810692105 0.06875837565721048 0.0
62 1 5.806196153676007 11.955935030856464 0.0 -0.03439508076044578 -0.10433012723637079 0.0
63 1 19.249575509802845 11.017356706707835 0.0 -0.022891137168147422 -0.06498653656188826 0.0
64 2 12.018345092781852 13.946878973291183 0.0 -0.005591972465174702 -0.007131206825785303 0.0
65 1 19.449625216658422 14.284704893861068 0.0 0.1131767835166148 -0.015155748767896845 0.0
66 2 19.112662808611145 5.6998130271003005 0.0 0.020494696719954488 -0.03246278355238778 0.0
67 1 17.20491496246458 15.821490968005863 0.0 0.03332322512907333 -0.006905726159279 0.0
68 2 16.35198635531233 9.161059259756255 0.0 0.07724816747493284 -0.0029181666286093484 0.0
69 2 13.758523490039043 15.797691857299853 0.0 -0.036835071932842724 -0.08696761188244598 0.0
70 1 0.6684697293456696 15.051139471241578 0.0 0.05318642040834666 0.01051322421731657 0.0
71 1 3.208627545836939 3.2398748381430726 0.0 0.044991550847948765 -0.029145253589662537 0.0
72 1 0.9757857845033577 19.013487411225206 0.0 -0.21539579461626523 0.21335349897179348 0.0
73 1 18.572069917343462 1.8940230952271122 0.0 0.008176306370691229 0.10362131518790237 0.0
74 1 8.204217691190346 2.962880449845318 0.0 0.09440302004089439 0.04163469541813971 0.0
75 2 6.258454480281682 17.539702793969692 0.0 0.019678293744986253 -0.014064722613389403 0.0
76 1 19.33412044225066 13.434876860435095 0.0 0.12761128770869956 0.08336078499520617 0.0
77 1 4.42806386873573 9.99031088409705 0.0 0.1338330857605504 -0.08227166540930185 0.0
78 2 9.547169300599089 9.917888915735437 0.0 -0.008307520370835991 -0.05967169718266525 0.0
79 1 3.394152659326243 3.892722807321674 0.0 -0.025184766866175247 -0.04751422832677343 0.0
80 2 13.336857518884294 16.9232800673571 0.0 -0.043677196494993874 -0.009433450554321782 0.0
81 1 9.754849691505616 5.735160736165973 0.0 -0.07181496722960144 -0.05563718797660016 0.0
82 2 11.29000444746074 18.077639544992188 0.0 -0.08429646492163745 -0.03642021484526485 0.0
83 1 17.594945728070385 13.844574491921021 0.0 0.10954153766459754 -0.045553177966648394 0.0
84 2 5.1022939632798945 7.631066614548474 0.0 -0.04696772876898159 0.10019911457270685 0.0
85 1 0.5052619956383027 0.7116532351395978 0.0 -0.07333118668594911 -0.05897132916831662 0.0
86 1 18.954212262675984 12.179656532071252 0.0 -0.09838238183557883 -0.031776315447697046 0.0
87 1 12.801404151121206 10.003167289699364 0.0 -0.1291413905121228 0.036123694717234214 0.0
88 2 19.74808613035103 3.180165882017583 0.0 -0.07139777440482588 0.07298237089084643 0.0
89 1 6.361293119020927 11.587733459686088 0.0 0.015290113042659129 -0.13384142102846272 0.0
90 2 18.006497183223903 10.782706532971696 0.0 -0.006307068503442503 0.02328053176265914 0.0
91 2 9.973560697645976 0.7730809263905459 0.0 0.048040094475272445 0.012493384326723948 0.0
92 1 2.500350523619759 17.88790240119142 0.0 0.04796257250633741 -0.049972216465361464 0.0
93 1 5.810980998508771 9.789487823191338 0.0 -0.004588715167955411 -0.04830962285917446 0.0
94 1 7.026315530660938 19.52673316800507 0.0 0.07253352300353264 -0.08575404354491671 0.0
95 2 18.8982540838617 15.63951686245317 0.0 0.034402461263109516 0.09489097268171437 0.0
96 2 17.341169978234532 17.026218604946596 0.0 0.08434251436825292 0.028667728651312792 0.0
97 1 4.50990255020084 11.965072442957448 0.0 0.032628731088971775 -0.006547265022901 0.0
98 2 7.435798814977706 4.535254463344699 0.0 0.027590792662072133 -0.009459142425370992 0.0
99 1 14.18003367628286 6.015634663608875 0.0 0.09810872603218286 -0.03091311375962628 0.0
100 1 6.91016265294656 7.6066453306354855 0.0 0.03778979929687495 0.05333376236600647 0.0
101 1 16.961673372568384 2.837446087788955 0.0 -0.103272327646155 0.027432841946970002 0.0
102 1 17.1549868981951 2.186877081135822 0.0 0.07014788482647974 -0.12480349002284558 0.0
103 1 18.585798946392664 19.126151048844733 0.0 0.03131057934815749 -0.025518649642257987 0.0
104 2 5.35429458120543 10.941885808940233 0.0 -0.03620312631810948 0.01489045463717579 0.0
105 1 18.21906603509035 14.137274752415413 0.0 -0.10391922830241103 0.12481777816141737 0.0
106 1 2.9650046540703903 11.577246290009821 0.0 0.11256096780214318 0.00923951771906238 0.0
107 1 2.6197003390179905 8.362452442181562 0.0 -0.005745638620456332 -0.07055019116277018 0.0
108 2 18.258381480174368 13.006012132259862 0.0 -0.04106490502674875 0.009941842323733189 0.0
109 1 6.347118889491755 3.345953678029351 0.0 -0.17059691595825044 -0.03451415850293106 0.0
110 2 17.087375440029874 11.650483305121908 0.0 0.007230668062180687 0.03103015563546439 0.0
111 1 16.29249790733976 6.700717056314222 0.0 -0.11403941859873111 -0.08952742965529027 0.0
112 1 5.113902553058877 9.868297615247508 0.0 -0.14543146328504525 -0.02143779605025423 0.0
113 1 13.619921261700041 2.8214391502799763 0.0 -0.007969781985654926 -0.057048073087910094 0.0
114 1 3.484453991501071 7.32681959352 0.0 -0.08231147885667697 -0.08729231508024068 0.0
115 1 3.675936589828921 13.60930460597809 0.0 -0.05653127732671943 0.2068108291857691 0.0
116 2 7.480019785545841 11.426834075355991 0.0 -0.005004386734894133 -0.04220181997410733 0.0
117 2 18.90562448941794 9.955570461399228 0.0 -0.004026610496714645 -0.052390966447644904 0.0
118 1 3.946691266813494 14.241248505043494 0.0 0.009022444076422283 0.027826474760612438 0.0
119 1 4.44344859324431 14.751793521906878 0.0 -0.1623248191427478 -0.07598494312635232 0.0
120 2 11.57361036323708 8.49112359200605 0.0 0.08374764146512835 -0.0067313582401924725 0.0
121 2 1.4609753491181614 6.266604518637517 0.0 0.011264595301702639 0.015228463184796443 0.0
122 1 15.625948556219877 7.509817401299635 0.0 0.03711780417868679 -0.012128935373483706 0.0
123 2 10.573607948965478 9.23425645812662 0.0 0.04708057707364402 0.014830518344149987 0.0
124 2 5.099963023352107 15.62251802693125 0.0 0.02454216917498163 -0.07088404602109338 0.0
125 2 15.623525538735274 13.201552786015435 0.0 -9.542423265151909e-5 -0.009476973575007099 0.0
126 2 6.03907044439748 8.410200034301273 0.0 0.03572089615934235 -0.04651243352804591 0.0
127 2 11.990789074502345 6.444857418534266 0.0 -0.022261386687441286 0.032942211096111416 0.0
128 2 17.746083865268346 9.38157662518517 0.0 -0.05354081235376746 -0.03227004194490855 0.0
129 2 15.64274733717671 5.004536489974862 0.0 -0.07046883552362411 0.009730869614095623 0.0
130 1 18.860344361080873 13.901421694578028 0.0 0.05243816787093338 -0.056940940277797794 0.0
131 1 18.76761527308086 1.2494817760217525 0.0 0.013678954042092002 -0.04560634125863313 0.0
132 1 9.935097425542235 6.389319660644212 0.0 0.12189243709440463 -0.16516484412449517 0.0
133 2 6.23120540326821 18.74176178491038 0.0 -0.028368791027994812 0.02028198256864222 0.0
134 2 16.032923752088223 2.2262943816366842 0.0 -0.055437235343890404 0.02249584863495388 0.0
135 2 9.67851326623487 3.8995880011948834 0.0 0.06490724295040065 0.022544583840092336 0.0
136 1 5.2129629592950675 19.124583227261418 0.0 -0.07216976099200649 0.012757164179001376 0.0
137 2 4.309781912932612 3.2362988325033837 0.0 0.05189774468199026 -0.08952011386885517 0.0
138 1 15.772787250083322 16.389005517298504 0.0 0.06346652265451355 0.11171837698718945 0.0
139 1 3.0736864097847905 8.853477746412514 0.0 -0.012727729361155708 -0.048403567802597386 0.0
140 2 6.882520490722443 9.346963993919266 0.0 -0.03199815584190553 -0.10046086124198157 0.0
141 2 3.5273216608715576 2.191447554645074 0.0 0.04690406634203841 0.03468815131982537 0.0
142 2 15.190007323968201 1.246331236434331 0.0 0.06499017765855884 -0.0016339789179663413 0.0
143 1 1.3514853746880833 16.12359054708419 0.0 0.09756889674413793 0.03604422088881736 0.0
144 1 9.973459465143423 1.8698547234044811 0.0 0.10612458645780472 0.06603018485472201 0.0
145 1 2.299728437775634 13.613460177759046 0.0 0.1556442363259453 0.0060356501329505525 0.0
146 2 12.31899231283109 3.83969896820458 0.0 -0.01727529717795375 0.03408896258460374 0.0
147 2 5.853342835388958 1.399818712427925 0.0 0.07078212634765485 -0.00645436137382593 0.0
148 2 7.197867093785489 13.993117150251216 0.0 0.053993739617229475 -0.020007590877272663 0.0
149 2 10.792982512253111 14.48082266370371 0.0 -0.1159959060541048 0.0007858901789901168 0.0
150 2 17.907969060599754 18.22556222405842 0.0 0.05464831075912436 0.1278975795858099 0.0
151 2 8.64397364509223 4.609819074425609 0.0 -0.15537933819985508 0.018390631189908302 0.0
152 1 9.356456894856354 14.718526172922406 0.0 -0.008147917169877691 -0.07403859106275927 0.0
153 2 6.682870941732559 2.321785171839666 0.0 0.06237732189224787 -0.09403339530844798 0.0
154 2 3.787343071912527 0.936955257394562 0.0 0.019306453988507638 -0.04114112706030249 0.0
155 1 17.625777115505148 2.7497878118968395 0.0 -0.10201582229209832 0.002932882237803139 0.0
156 1 0.1505310648321248 13.042067619304762 0.0 -0.032500606374463274 0.07117467656649354 0.0
157 2 17.554272856174688 19.566747035642024 0.0 -0.02363240713204094 -0.05630463429577422 0.0
158 2 1.801741150292241 5.01305298023591 0.0 -0.07609185690001402 0.05500513304276136 0.0
159 1 3.069885681607893 17.555892188639497 0.0 -0.07049467613559023 -0.002456613928288611 0.0
160 1 13.630491807532236 7.366274168571978 0.0 0.0006358782062343255 -0.03783326586439046 0.0
161 2 12.105728848185816 12.632692762704954 0.0 -0.006984896479325107 -0.09708264962696003 0.0
162 1 16.908753783253452 0.7069474487462859 0.0 -0.1427677055736626 -0.09482641440646311 0.0
163 2 3.995925018464803 8.296082890244467 0.0 -0.012398213911629416 0.04839668361175918 0.0
164 1 0.2288395840473717 7.912487234438159 0.0 -0.07562367907225102 0.04652474432966756 0.0
165 2 0.003188571449182947 1.8322244288749163 0.0 0.010429780489419456 -0.031786587166379617 0.0
166 1 3.9840901483284656 15.234599400128822 0.0 -0.1325839761464206 0.02716525849946768 0.0
167 2 9.237968353814283 2.6503832646459946 0.0 -0.04267782853225123 0.009665802084508637 0.0
168 1 19.296871893604287 12.768263416292953 0.0 0.0507936911893164 -0.00245985265293431 0.0
169 1 19.63684684595457 17.145834002631673 0.0 -0.06084844214316552 -0.041220703026100265 0.0
170 1 7.933383038598634 3.573316387257605 0.0 0.09244671306140312 -0.02335836214788285 0.0
171 1 19.405721665539545 11.676087334070983 0.0 -0.037734055262956624 0.05709966765060561 0.0
172 1 15.889286896566126 19.465066504661234 0.0 0.10018915321296819 -0.06355378113491018 0.0
173 2 9.707256607251294 16.365812260526102 0.0 0.0035452869367070482 0.008568818826315454 0.0
174 1 1.9478952237615383 8.308875618388184 0.0 0.08010918485668593 0.07220766131449774 0.0
175 2 15.181480171832966 6.510811461926895 0.0 -0.08984731207285468 0.08621458048169368 0.0
176 2 3.9529122776405816 11.051452690808532 0.0 0.0625511188584797 0.02691532691623157 0.0
177 1 3.7420062000700196 9.98954091670337 0.0 0.031889908495732006 0.09050616391669358 0.0
178 1 16.478599802521337 0.10923345081932916 0.0 -0.05210905371348915 0.07956005064957142 0.0
179 2 11.755959961811387 9.751548610488207 0.0 -0.10664703162677555 0.01548729929938906 0.0
180 2 13.121784896798898 1.1463845901267944 0.0 -0.054875233642655334 -0.029825691359017387 0.0
181 1 7.098245621694676 8.257740031168591 0.0 0.13736232403519194 -0.019589934628609213 0.0
182 2 15.457730093253717 18.45843932588096 0.0 0.03185854210828444 0.1653599172697841 0.0
183 1 13.551642925232942 11.1064805904997 0.0 0.0035964614999417256 0.0065762034268943975 0.0
184 1 5.25037274986927 18.076540953728237 0.0 0.056797555017004536 0.06542652290374568 0.0
185 1 2.330345515312412 7.748202494642026 0.0 0.043333985600143704 0.06770187624586309 0.0
186 1 7.578513820764485 7.8120504201675205 0.0 0.06993763691035434 -0.1441771420497161 0.0
187 1 12.01861401310594 1.158842220147827 0.0 -0.025166224364892215 -0.001296922023177835 0.0
188 1 4.702669241629536 9.32195142144886 0.0 -0.09304169972301601 0.15820277575935415 0.0
189 2 16.178495472386587 15.335299503599078 0.0 -0.042764362439098744 0.03557908362735408 0.0
190 1 13.784102701181764 18.013602352752592 0.0 -0.0170055646490566 -0.14271044666560534 0.0
191 2 0.24044447845549102 18.18630230923844 0.0 -0.01739295808379315 0.01753823014464195 0.0
192 2 4.153563121195628 17.65858272610478 0.0 0.019048606569027585 0.049718085627992535 0.0
193 1 1.3510895215217054 15.267740154741624 0.0 0.1428939168982869 -0.11454258368085447 0.0
194 1 6.33552220453501 4.633300424598925 0.0 0.032373650366391775 0.006935238327235077 0.0
195 2 16.133553036425837 17.42722052320329 0.0 -0.09271466508240102 -0.1420830422099389 0.0
196 1 10.340310267200746 19.52175733943624 0.0 0.12245604257744726 -0.06196514817546952 0.0
197 1 16.252728266361324 0.9030353622245837 0.0 0.008197643734252686 -0.04419906301150798 0.0
198 2 14.428081632623174 12.540860865383294 0.0 0.027612402233042045 -0.03204918646970715 0.0
199 2 8.693504341748486 11.867117628410229 0.0 0.06563312370490386 -0.03216990547634087 0.0
200 1 9.907185502772359 15.16637175883686 0.0 -0.009350549079427978 -0.02713850610621974 0.0
201 2 10.893850078349057 15.72528820103572 0.0 0.03328638608062008 -0.036447423401366856 0.0
202 2 4.677584762734919 1.7841481646791946 0.0 0.010721429432912011 0.010672029558571028 0.0
203 2 9.816486378697785 13.692013309604809 0.0 -0.029469128932645458 0.06446960565721549 0.0
204 1 17.81714326590802 2.034539027337831 0.0 0.10032003376610979 0.011793212493063702 0.0
205 2 10.012827073367566 12.390570812375538 0.0 0.001434492527098439 0.1520265916030639 0.0
206 1 6.279132343014547 7.329386801868899 0.0 -0.04725156501296436 -0.04727559965655583 0.0
207 1 9.89275630793522 7.050428398376792 0.0 -0.06460494304960325 0.02133917987336789 0.0
208 2 8.317130582249636 9.381891325322496 0.0 -0.0023058102988563435 0.039413481391404194 0.0
209 1 16.109252000899584 12.219355877141222 0.0 0.0069441951916496955 -0.01770834094104186 0.0
210 1 2.8597138551131622 7.128016324044709 0.0 -0.056799610641729135 0.09107058232124633 0.0
211 1 10.911108280109174 6.9012896707793185 0.0 -0.05083152094520984 -0.002355944635404381 0.0
212 1 4.635944656513574 14.121341124283315 0.0 -0.11026857351240955 -0.12303687270751985 0.0
213 2 12.36695905576106 0.1259100772563892 0.0 -0.03865042216492291 0.006802402234049756 0.0
214 1 10.821374796556906 19.06591461729607 0.0 -0.007751113258510775 0.024952675919016103 0.0
215 1 14.34603037158375 17.299503105771723 0.0 0.09511929853839933 -0.03123879486600615 0.0
216 1 9.042808573911078 12.89227230767918 0.0 0.004147567929632806 -0.02092623008007358 0.0
217 1 6.466132550431636 10.934873664989404 0.0 0.08488653881623714 0.0691530119382518 0.0
218 1 7.717129986991092 8.491160154288227 0.0 -0.07071687898657317 0.042977768628322234 0.0
219 1 10.281876949669902 4.840284394291787 0.0 0.053469756953929436 -0.09822592158701625 0.0
220 1 7.556994521328943 10.220174566991385 0.0 -0.1298417133115935 0.09073044563743332 0.0
221 2 11.075606166860764 1.7110904741132533 0.0 -0.027915119916522853 0.07093991624794313 0.0
222 2 5.422581642083737 3.9560657933768133 0.0 -0.039076887684686576 -0.011119973698879243 0.0
223 1 14.041677553284606 3.4080765421543586 0.0 0.06950034457408832 0.008829385028743477 0.0
224 1 15.112822588587923 10.307604043769553 0.0 0.05674709724324887 -0.07858192900091246 0.0
225 1 2.9793235455471434 13.484647828401263 0.0 0.019833933628626926 0.0010214186134824721 0.0
226 1 11.400000233552941 7.382841233139943 0.0 0.03766434745865845 0.027559226049898976 0.0
227 1 18.25545965787676 2.5066183108828635 0.0 -0.11223713283664907 0.147453580566555 0.0
228 1 15.19014805960201 16.770395176597795 0.0 -0.05668208313771615 -0.08511757164659631 0.0
229 2 19.691287776889816 19.46540209272918 0.0 0.03727446413832363 -0.09217278759235482 0.0
230 1 2.4941587774345 5.860826244011486 0.0 -0.004764086662813367 -0.02875122504181838 0.0
231 1 3.261773925777772 16.930088157948543 0.0 -0.057848045770213005 -0.042909281637588455 0.0
232 2 3.563530074873241 6.2162862804976555 0.0 0.055030402859495404 -0.12192923713493559 0.0
233 2 2.19589320323291 16.8127671169172 0.0 -0.05556104358910966 0.029962293463623637 0.0
234 1 14.681338908950634 8.207356266420035 0.0 0.05541643295327533 0.035843358669132346 0.0
235 1 18.950030524901347 17.890628301619103 0.0 -0.010457469550269452 -0.0012612379250779467 0.0
236 1 2.199688567081353 7.0932621121569905 0.0 0.04099402800164413 -0.03430115842360676 0.0
237 2 14.547627056076596 4.402539704962149 0.0 -0.10218365041539497 -0.03877453325807578 0.0
238 2 4.116598876703879 16.309079224818284 0.0 -0.08771598138233454 -0.03183736355724507 0.0
239 1 6.264751695016988 10.279887666281088 0.0 0.03506646205444508 -0.006457658151531291 0.0
240 1 0.2582115322630347 9.75049294632624 0.0 0.041916132335029034 -0.019995222926003416 0.0
241 1 4.129715757764885 7.175033659967706 0.0 -0.040463206935158647 -0.02012194759111005 0.0
242 2 1.1995068124260126 13.486740287208223 0.0 -0.0028361251465688605 0.022955596849849446 0.0
243 1 13.869758451411148 10.483489096053477 0.0 0.0743985469707839 0.02334212318091558 0.0
244 2 8.57998221569354 13.862870970078106 0.0 0.024203248180992093 -0.006878903962287728 0.0
245 2 2.989216568489584 15.774846925236721 0.0 0.007931174558779853 0.09517830538640729 0.0
246 2 8.930991812214865 1.409101444921216 0.0 0.07493908417931518 0.04037770330650936 0.0
247 1 16.300734985467276 7.421563065418275 0.0 -0.03298145794633745 -0.05745615854716568 0.0
248 2 7.5413776824585534 6.674785647181905 0.0 0.04529407582632401 -0.1154519752232738 0.0
249 2 9.378672957735905 8.662749872329309 0.0 0.019958945650421132 0.056141084096447955 0.0
250 2 1.1577015712491854 2.8077691777447717 0.0 -0.030761098018156113 0.08404204645793555 0.0
251 1 19.36702881473991 7.6896200987275645 0.0 -0.07068125384677605 -0.020985442954771536 0.0
252 2 0.9341768847676302 8.821571895792683 0.0 0.043486378679878375 -0.014007416934454337 0.0
253 1 18.070200540476407 1.395041620049203 0.0 0.06112198349268863 -0.11020774063856258 0.0
254 1 9.117223250640384 5.570578848514465 0.0 0.09005499936396628 0.027283326426349494 0.0
255 1 16.021469388762206 8.082458035006159 0.0 0.06244365291408411 0.006354841002270891 0.0
256 2 13.248478569985615 12.1634723317358 0.0 -0.025369491424049647 0.05031996809531097 0.0
257 1 19.70682474923123 16.456029727194306 0.0 -0.06519340231252874 0.1146588237413809 0.0
258 2 10.85581054823733 5.7831652570513 0.0 0.06395294642995537 0.04820546268825671 0.0
259 2 8.463540507254601 16.247807121659392 0.0 0.03125543803706042 -0.07876116231978583 0.0
260 2 13.184846059949935 18.9689200926681 0.0 -0.02902452528784329 -0.013200552987632234 0.0
261 2 3.551032474980548 12.516598092127651 0.0 0.013303110662889405 -0.037104388670440844 0.0
262 1 12.475794864244758 10.603986519266453 0.0 -0.019879913869757713 0.0394289394507034 0.0
263 2 2.340854219202604 2.5236695479385087 0.0 -0.04428362334330626 -0.02637361814798839 0.0
264 2 16.896113401054194 5.06188246872313 0.0 0.06190878963950682 0.03948195839260569 0.0
265 1 4.917718823586236 0.6887423584116198 0.0 0.0301461303220904 -0.07630426661801876 0.0
266 2 14.081042705383155 14.597595789919511 0.0 0.03660284951221324 -0.011679500028505898 0.0
267 2 2.771748153614468 10.468998059920812 0.0 0.050611485130718795 0.0137789827697594 0.0
268 1 18.602365523316443 0.04644352740085205 0.0 -0.021066746221415286 0.04147027166068651 0.0
269 2 0.6496381477887165 11.392951778522004 0.0 0.010578438992215514 0.03669656111436342 0.0
270 2 1.538654821042078 0.29089994544410525 0.0 -0.006282670222616737 -0.21695852968283577 0.0
271 2 1.2177994029001258 7.521882839621027 0.0 -0.08017494366201262 0.015354705651953111 0.0
272 1 5.160864950966525 12.064289246817086 0.0 0.06118517339561209 0.14202424853629275 0.0
273 2 13.06787688129236 5.77476150744059 0.0 -0.039169777507106554 0.0419557253767785 0.0
274 2 11.992320138780203 16.79363908473693 0.0 0.03316277878804628 -0.05052817426012199 0.0
275 1 7.883747991148978 19.1990486084639 0.0 -0.0880580302643213 -0.07281753042232812 0.0
276 1 18.912369771486286 2.4812030037320825 0.0 -0.11353643150924625 0.06855462615364308 0.0
277 1 12.83744992285492 11.166844904068329 0.0 -0.07916047344135434 0.021860088750752186 0.0
278 2 9.741605583298798 11.172974254031422 0.0 0.0291032930242483 -0.12857730117477237 0.0
279 1 13.458445113040078 9.95804018961619 0.0 0.0017222273615185033 -0.09015584665404465 0.0
280 2 18.64313345391561 6.894709657437756 0.0 0.03776519122391753 0.07710264169284851 0.0
281 2 1.2296795768586006 10.247333485813337 0.0 0.061378500240413886 -0.05364379945846658 0.0
282 1 13.213942351392909 6.840156520342255 0.0 -0.027281364488206967 0.10014178956813274 0.0
283 2 8.538360102696899 17.516607559908607 0.0 -0.051440939814818815 0.045654456019524434 0.0
284 2 2.3054386535374083 14.699594140565381 0.0 0.12018707875445099 -0.03146328843466092 0.0
285 2 3.3414652400982856 18.636822218500214 0.0 -0.06144379989992229 -0.008548953029204826 0.0
286 2 15.366454164836421 3.4905738465046365 0.0 0.02803452762963747 0.031012850823929523 0.0
287 1 5.143216822588372 14.543357425098458 0.0 0.04278376441632073 0.0860710839585791 0.0
288 1 17.606926621480344 14.516883581342878 0.0 0.014709238454718531 -0.0009986056989491536 0.0
289 1 18.767087232702238 11.537777426851164 0.0 0.021952334176369735 -0.10719021964476767 0.0
290 1 7.0297943280442885 3.4647660946055696 0.0 0.01409651050453546 0.020462617660648292 0.0
291 1 12.226107235643028 1.79149329362255 0.0 -0.0045517707286545465 -0.10176026134120651 0.0
292 2 16.848459394377652 10.327126883370653 0.0 0.04294057354178379 -0.014474896286460388 0.0
293 1 1.1213397236344507 16.74902468214127 0.0 -0.0001321809372421953 0.06327925957198491 0.0
294 1 8.604885645622128 3.528933966547382 0.0 0.03225205559148621 0.0737484767674685 0.0
295 1 7.2113870229631685 18.141173743148247 0.0 -0.07862174140787836 -0.010181052363034366 0.0
296 1 4.0372249577004276 9.400649463853929 0.0 -0.11622903874756357 -0.05259415031322195 0.0
297 1 0.8431984230620656 15.698425478289739 0.0 -0.030053636872026772 0.0482914107224292 0.0
298 1 19.599053277262218 0.7822226015608609 0.0 -0.006268474448005076 -0.1398770482350554 0.0
299 2 16.96991661386036 12.940276613216382 0.0 0.02654121174009525 0.09546863638418965 0.0
300 2 1.3877942324637096 17.821967609077166 0.0 -0.07245891005266784 0.021647802203648085 0.0
301 2 10.764121145817349 16.971064518382803 0.0 0.05165651378536472 0.019281814188634023 0.0
302 2 8.256988192730164 15.00422609284796 0.0 -0.001894337503764681 -0.02661307305656187 0.0
303 2 0.5584201629525527 5.372739736371596 0.0 -0.0515079752141448 0.020898148746764957 0.0
304 2 11.034233881426466 4.0181639633756925 0.0 0.07384469190859555 0.02330350850979179 0.0
305 2 16.683484127576847 18.683626763449972 0.0 -0.09287977946599478 0.06853532464729714 0.0
306 2 2.504361058587125 1.2613917897305307 0.0 0.09019889580342447 -0.11247073002179817 0.0
307 2 17.838655076863184 5.92066681817357 0.0 -0.017589178047070397 -0.004408802057447018 0.0
308 1 5.387863236043457 9.264050390744325 0.0 -0.08664420589372679 -0.014317739603897595 0.0
309 2 15.33089863263204 14.41673162496804 0.0 0.0022488848870599334 0.007198255186037625 0.0
310 1 14.131845335925696 7.841352861880714 0.0 0.016344770242963224 0.21210761627996255 0.0
311 2 12.60703633032686 17.87895150760503 0.0 0.0034799578271892074 0.021894775654246905 0.0
312 1 9.262461664324588 15.383484252713755 0.0 0.027951773019394645 0.05763545869089423 0.0
313 1 13.60474975170094 2.136769252152907 0.0 -0.008553264710782634 -0.0021450669526987243 0.0
314 2 1.2473930839186664 1.552054577377635 0.0 -0.018017280598629202 -0.06506726684290243 0.0
315 2 5.427865794119072 5.223106377957837 0.0 -0.020856707662448452 0.13027149474430086 0.0
316 1 16.764123158541608 6.176155231186608 0.0 -0.001073389918611863 -0.08104623874666157 0.0
317 2 13.324435165308 4.526449443539724 0.0 0.04742902439074747 0.12430244582980966 0.0
318 2 5.779142825264323 13.669502155427965 0.0 0.018987173007484696 -0.04237606279553923 0.0
319 1 0.19942452346276765 15.778869176827772 0.0 -0.2197060920270343 0.08222124433630418 0.0
320 2 14.196523717081304 0.46976131643984265 0.0 0.04173921330088351 0.058864626032517034 0.0
321 1 5.806442385409895 6.837042412525429 0.0 0.14595607799206653 -0.07344239218398796 0.0
322 1 17.595071229469273 0.8982566046678668 0.0 -0.0015841122533960938 0.07737278009935583 0.0
323 1 9.448426315091506 7.545074589168278 0.0 0.026763728601161788 0.00945759969701012 0.0