ITEM: TIMESTEP
0
ITEM: NUMBER OF ATOMS
400
ITEM: BOX BOUNDS xy xz yz pp pp pp
0.0 19.7609 0.0
0.0 19.7609 0.0
0.0 10.0 0.0
ITEM: ATOMS id type x y z vx vy vz
1 1 18.469074569647287 17.1844110659318 0.0 -0.0627572809655858 0.03881444272402405 0.0
2 2 9.322661193724292 12.593202255091866 0.0 0.007891002139176281 -0.11768714978188984 0.0
3 1 9.942877807767852 1.7487540729895565 0.0 0.06633046853297478 0.06199515892930689 0.0
4 1 4.863707247736726 19.348285505356795 0.0 0.017596778566177022 0.015088664089289158 0.0
5 1 8.39966023706465 12.04181168314077 0.0 -0.005430867482904443 0.10328441035597252 0.0
6 2 0.335848909259369 11.880302682791813 0.0 -0.006498417511592594 0.011965702516664612 0.0
7 2 8.658983721589848 16.812438611904675 0.0 0.025026633609002216 -0.026527183579161385 0.0
8 1 10.628485384661666 17.826587168958326 0.0 0.03430075914314629 0.05430322574510964 0.0
9 2 14.74314273507203 13.729097615539002 0.0 0.03729668839932058 0.04743485460100967 0.0
10 1 0.8815227167673159 7.8556529962912265 0.0 -0.0644837630996602 0.02372863114013366 0.0
11 2 11.444434374418615 15.585797874261319 0.0 -0.01657471969532496 -0.030926212262285212 0.0
12 1 3.5778758281020395 19.088808803919488 0.0 0.07947777332402191 0.006755715955311513 0.0
13 2 11.659604911107685 9.621124621366327 0.0 -0.03259118008902566 0.026588070687909946 0.0
14 2 10.309856996806854 9.637787134690953 0.0 0.01893404126310137 0.0320345720165052 0.0
15 2 7.862392888015149 19.335001904189117 0.0 -0.10489017874874816 0.07114912015617507 0.0
16 1 8.144931535649233 5.135436322246277 0.0 -0.07264003000668055 0.04536394113080664 0.0
17 1 14.463963739886827 9.666265126856729 0.0 -0.022477805681359504 0.04253592569258178 0.0
18 2 17.415232953911687 4.829348079522941 0.0 0.11583353853970993 0.03347376168974643 0.0
19 1 18.985783380151403 8.7831983134941 0.0 0.1071661175173815 0.04303773971699314 0.0
20 1 8.050412678484232 5.851597215327215 0.0 -0.02203750160824892 0.02841530081836757 0.0
21 1 0.44782713970643623 2.7686819427683345 0.0 0.06496642883387199 0.10448801389930504 0.0
22 2 1.059290720055393 1.828280206387869 0.0 -0.07238408939892925 -0.013377961922943035 0.0
23 1 5.085179148685918 3.590422502357429 0.0 -0.08990582678729088 -0.04138873063817603 0.0
24 1 15.069396727762255 10.022479990942756 0.0 0.11034647960952615 0.04755131928156046 0.0
25 1 10.00529961162845 3.8101442986068115 0.0 0.15114112372576338 -0.010382943786561294 0.0
26 1 8.081597957644112 11.467891685814692 0.0 0.1678445287326782 -0.058348475666861306 0.0
27 1 5.633933438758834 18.276464646866703 0.0 -0.015478183012431349 -0.025691100383885005 0.0
28 1 6.677065576307715 19.37412386191708 0.0 -0.08375363813752815 -0.06013769167490914 0.0
29 2 16.74858985551398 18.66744676047683 0.0 -0.072557760844603 0.03676622522518597 0.0
30 1 9.405924149390408 19.645211930735712 0.0 0.028220480097202943 0.026561850735322075 0.0
31 1 19.443280060750553 8.306550105600202 0.0 0.06196477878839365 0.014559709289349214 0.0
32 2 11.569177307150513 0.9705548949969289 0.0 -0.007836807991669309 0.12419353304391684 0.0
33 1 4.086631885669214 11.385295962623276 0.0 -0.00590476659093613 0.050344098772910205 0.0
34 1 3.796839565784581 3.4039727805715327 0.0 -0.0689862833662433 0.032207096129755794 0.0
35 1 11.182335577552518 1.9966530632662327 0.0 0.04967397804320441 0.08266889694646692 0.0
36 2 6.278782038208051 11.2026047589368 0.0 -0.051248690838023636 0.007855788964722284 0.0
37 1 8.795807033203747 0.19514934087047262 0.0 0.11062651573525266 0.028982247448006343 0.0
38 2 17.987086607601206 3.7932886775900876 0.0 0.0060772638559017916 0.027847951568256063 0.0
39 2 1.999861181010193 18.50040667694048 0.0 -0.064109718765061 0.000407431939157844 0.0
40 1 18.236818010906575 14.19625762006584 0.0 -0.056974513309848936 0.007745944341035092 0.0
41 2 0.5928806609506374 3.883987640809214 0.0 0.06912931508597663 -0.02092569419331637 0.0
42 1 4.072625022233202 13.195455296154714 0.0 0.0900850666375023 0.024594529957193797 0.0
43 1 13.288317586309889 4.665744960560247 0.0 -0.08772846351737572 0.03396786787582681 0.0
44 2 10.090888051473765 18.795583209966626 0.0 -0.038893342640772544 0.03573107311135422 0.0
45 1 5.112420644779281 12.762737656950453 0.0 0.0535042739231466 0.00091658034861407 0.0
46 1 8.712870686711879 5.507779541840169 0.0 0.009707442624040032 -0.03034147806977548 0.0
47 2 5.8300254081300364 2.7643305062093866 0.0 0.061170780642120476 0.03511336143338997 0.0
48 2 18.57040838238522 2.710476936214614 0.0 -0.05021008971693314 -0.026796196693903446 0.0
49 1 1.6724233079433994 4.005641743052298 0.0 -0.17400627215238684 0.05446082592677872 0.0
50 2 16.121785524362878 10.529971239613017 0.0 0.015349431522052537 0.12296209873167518 0.0
51 1 7.27647619071507 12.56217564178605 0.0 0.07485942396249194 0.02168112683908022 0.0
52 2 3.673806400567682 6.20802939012915 0.0 0.08281297582557177 0.024907041756167852 0.0
53 2 16.24365382943148 6.984894760969141 0.0 -0.10177790171999915 0.03348087796785513 0.0
54 1 17.68958260639288 9.995311575358967 0.0 -0.06171888237866093 0.01010013580149701 0.0
55 1 9.96692932416667 10.918254628453665 0.0 -0.009678188232042603 -0.002890334264151162 0.0
56 1 0.7067977710621683 5.705509540702019 0.0 -0.21320580896126853 0.038418601613163586 0.0
57 1 12.513986818623762 12.34931224395895 0.0 0.06437816244180984 -0.14648839567764202 0.0
58 2 16.81144514925626 5.8793105618084835 0.0 -0.017857089547035392 -0.020816106374983566 0.0
59 2 1.1430331879768463 15.297048881072815 0.0 -0.025146383783519237 -0.08182625798888737 0.0
60 1 18.827930871219582 0.45968248284880103 0.0 0.07807439524774519 -0.013650188047335192 0.0
61 2 7.046920981734469 3.0748414447525683 0.0 1.5596062620309753e-5 0.027440490538168317 0.0
62 1 2.110353117465353 4.479122713757887 0.0 -0.08193139514382938 0.056982081373578804 0.0
63 1 18.76020039288215 19.562559453005917 0.0 0.05778886218497225 0.07933674086878198 0.0
64 2 4.185974717200094 9.692063862367077 0.0 -0.003127677290040898 -0.017168183389011108 0.0
65 1 10.039636985341115 1.0843498801362956 0.0 0.0485109271568025 -0.09276372242958562 0.0
66 2 3.170178637530471 18.054725855634562 0.0 0.05428632493193479 0.02506563089643725 0.0
67 1 7.467709237974216 8.03164223396053 0.0 0.061943552338206725 -0.0021149768959610894 0.0
68 2 9.149173673497728 2.5418676499389594 0.0 -0.019694442517735854 -0.054059623721839284 0.0
69 2 6.417986681852631 5.2849946057984045 0.0 -0.06865395553726324 -0.010684939814672893 0.0
70 1 17.464006081715063 2.859163982059219 0.0 -0.01533985768594156 -0.14706129900356654 0.0
71 1 5.917199900329223 13.848189592266666 0.0 -0.0013450621738893662 -0.03480225367756974 0.0
72 1 12.017763334867059 4.411812947815023 0.0 0.1807079942026796 0.058131983104060245 0.0
73 1 18.357505858701092 11.243363434455732 0.0 0.07399065155239451 0.08658297198372132 0.0
74 1 15.062874513802894 4.24902798488258 0.0 0.010122422774453927 0.07643856355980874 0.0
75 2 14.691962958775731 14.967359777427061 0.0 0.015648720293659595 0.001703361408914475 0.0
76 1 13.804364021146231 9.524325128101546 0.0 0.0394301498099318 -0.2194438783910823 0.0
77 1 13.758698039103827 14.275087930932099 0.0 -0.033700022287840574 0.010013674278069026 0.0
78 2 11.508559600465336 6.375385554222242 0.0 0.015089591110129991 -0.0678926879194167 0.0
79 1 5.287971225611079 5.489934661369745 0.0 -0.05213138939944514 -0.0066987504924239955 0.0
80 2 6.666883369111515 1.3800036351191622 0.0 -0.0004395318089214163 0.00841195951041154 0.0
81 1 4.4552694376485125 12.629347909063275 0.0 -0.031485188724024026 -0.013900530939467914 0.0
82 2 13.037844207985119 8.04715252035972 0.0 -0.07549421725043061 -0.029377083313240144 0.0
83 1 7.525440070090296 5.424482819563545 0.0 -0.08330267361172995 -0.01350903677396263 0.0
84 2 0.623218141451778 13.247424734817326 0.0 0.03644627255929499 -0.08091000305440942 0.0
85 1 18.986221445205903 11.577610026964873 0.0 -0.05579984718791548 -0.0650813590795514 0.0
86 1 14.373761119966034 4.087899996060832 0.0 -0.07925341629605671 0.08438234099750887 0.0
87 1 6.379297454516851 7.366690976231558 0.0 -0.06552238955376231 -0.046842471313801155 0.0
88 2 1.9278403136043385 0.8237110254396248 0.0 -0.01107079798300715 -0.03271650243046155 0.0
89 1 12.64961237414055 9.13606762864876 0.0 0.06612307398624857 -0.08849516796237314 0.0
90 2 16.57238399509008 16.600242815708224 0.0 0.004529351195777094 0.03360065424198162 0.0
91 2 11.042116014913613 10.677757524096027 0.0 -0.004244443047190089 -0.016391942564258345 0.0
92 1 4.32257865534622 13.807041054211803 0.0 0.041646989363871505 -0.021304894669758597 0.0
93 1 2.9255563908168702 2.1753359570245463 0.0 -0.10545526856972573 0.014673994687028074 0.0
94 1 7.095388792845944 13.190590436151249 0.0 0.03232814359197954 -0.0625929646414978 0.0
95 2 16.391429410653227 13.072308276774123 0.0 0.07964037161728349 -0.0029369608354132964 0.0
96 2 3.2183152344479553 15.731308593187922 0.0 0.08838059510335881 0.0019019505987006502 0.0
97 1 7.036879243505329 7.514398533404379 0.0 0.14155619401396444 -0.013871191346436178 0.0
98 2 19.705060498128805 7.238579615407798 0.0 0.09684556198940399 0.035705350873128316 0.0
99 1 2.7899998856430233 1.488727004411124 0.0 -0.025660504778481086 0.03634886926511695 0.0
100 1 0.20081799511346277 19.408214498707448 0.0 -0.0027059712473099067 0.081903090447602 0.0
101 1 1.383658293400203 11.491802152184887 0.0 -0.0742445831282458 0.049207188490533856 0.0
102 1 6.398785093562335 14.331276641281274 0.0 0.27003194274917247 0.07046347714067525 0.0
103 1 19.037307420698582 12.244239597450507 0.0 -0.0652999883684899 -0.07947315999945043 0.0
104 2 3.2896663967956625 10.614572323699527 0.0 0.010396273155726641 -0.04561371691846921 0.0
105 1 7.30183637547559 13.80101913005277 0.0 -0.024686140391783563 0.05507405934721007 0.0
106 1 9.037946747575038 4.205900973588629 0.0 0.04060616549714991 0.04679060164376294 0.0
107 1 6.608823344961158 13.674800279783657 0.0 -0.04156938073457583 0.002238410231219568 0.0
108 2 4.5688878005669205 2.6296055420900557 0.0 -0.015266345407993587 -0.0019559569258749705 0.0
109 1 11.238732728671513 19.0025494844199 0.0 0.017409573545599813 -0.014293984447522537 0.0
110 2 12.612229612565601 0.28086637514793744 0.0 -0.04358545594834599 0.016881873622035727 0.0
111 1 4.77103237013462 5.995977439938974 0.0 0.14146825770034302 -0.12028603120126885 0.0
112 1 17.261166469371016 10.522774986813099 0.0 -0.13071513424729977 -0.07365750333643215 0.0
113 1 19.396110581771776 19.75893727445661 0.0 0.115384878896871 -0.005734647627217727 0.0
114 1 16.400658955180155 2.153033186928726 0.0 0.030016043009418337 -0.07422874898937787 0.0
115 1 8.42592881336874 4.505807234982608 0.0 -0.010283837345437283 0.04982882518288315 0.0
116 2 18.87353417774877 6.21722528718489 0.0 -0.0529943108663772 -0.000946001636776612 0.0
117 2 13.880659062898005 7.171819193417998 0.0 -0.032007086194686014 0.08225470592612022 0.0
118 1 12.14573570461328 8.652655439886228 0.0 0.007811457327735343 -0.021868653789419323 0.0
119 1 15.69191676598535 3.9918643329364127 0.0 -0.1545150792337815 0.08112838215143699 0.0
120 2 8.263683034423677 3.4199901096627445 0.0 -0.03909772371181652 0.04276651497073702 0.0
121 2 19.313021314046733 13.913175160503501 0.0 -0.007756868473373376 -0.022296369482677526 0.0
122 1 12.688750160671285 3.217786797891471 0.0 -0.0012016798156709511 -0.16162832110156186 0.0
123 2 7.348469644949536 4.333592426081792 0.0 -0.042740949149588224 -0.06403470867093346 0.0
124 2 16.372561963632428 1.0717142136976239 0.0 -0.0028618004327953814 0.10413909455419704 0.0
125 2 9.02973128812381 9.390593382775144 0.0 -0.02519970199458763 -0.04581963261004638 0.0
126 2 3.102269213923737 12.722662847117583 0.0 -0.03967526035396541 -0.006644491985553871 0.0
127 2 3.04932757505926 4.979067669391004 0.0 0.0360245106674264 0.021241437952722656 0.0
128 2 9.801506299175495 8.355423705395985 0.0 -0.05604915796555564 -0.03254598212723894 0.0
129 2 15.027761171959364 3.142710322714594 0.0 0.0403297754910622 -0.03891221393204844 0.0
130 1 16.119970840380592 2.7868481744687563 0.0 -0.11849858273190259 0.06368157896633933 0.0
131 1 8.822337818445058 11.528472779853944 0.0 0.08965541572564038 0.08870529667182629 0.0
132 1 15.73678592350872 5.94334732375929 0.0 -0.04103234007588406 0.06618745779246951 0.0
133 2 11.909070542248152 16.774457880119787 0.0 0.01236219190971406 0.09359756864389235 0.0
134 2 10.766359094586496 13.866454430119127 0.0 -0.07026415495174371 -0.07181325012526767 0.0
135 2 2.0207152647486284 10.537225766572515 0.0 -0.07710931217227374 -0.020045903224776517 0.0
136 1 4.0744717299547775 12.085583867085576 0.0 -0.0162184178403187 0.09161579769714202 0.0
137 2 5.065514989431163 17.24661390751108 0.0 -0.02097872936816498 0.042431427119287726 0.0
138 1 6.075538386737895 18.918314066790046 0.0 -0.021303851416874412 -0.07762381661234505 0.0
139 1 16.323515932539706 17.658612307801526 0.0 0.07663040464131798 0.10419685725936668 0.0
140 2 7.523270883893165 17.22277872567081 0.0 -0.04700629237375485 0.060699353160662016 0.0
141 2 0.5183188174729018 16.374548677325464 0.0 0.013080439653779037 -0.013993839206189391 0.0
142 2 9.352758442910286 7.057882377841729 0.0 -0.028887872929479565 0.03277555592363115 0.0
143 1 18.01867619070657 0.8198294079473352 0.0 0.09730562009502583 -0.05039852150830866 0.0
144 1 12.029380651920537 3.123868190110109 0.0 -0.06383571889762056 -0.03952596168093462 0.0
145 1 4.400812113264354 10.787130058876182 0.0 -0.0489797196428763 0.014814223675971067 0.0
146 2 12.435186020901941 5.428259056745366 0.0 -0.060737712328780426 0.04095731841362231 0.0
147 2 10.642884192785923 16.7192641207263 0.0 -0.041702346254535234 0.04691730821421907 0.0
148 2 0.2019929547289591 9.357860523928682 0.0 -0.037958326080761565 -0.01751019612432072 0.0
149 2 13.661346480791078 5.757756496516768 0.0 -0.03454204991468231 -0.02874600496597574 0.0
150 2 2.703276140804325 3.5464833831826796 0.0 0.0721457220854782 0.04186553507300179 0.0
151 2 5.392873493919074 10.318973560806272 0.0 0.04126220438697836 -0.029123327542163693 0.0
152 1 18.42151751400363 11.934846514392165 0.0 0.06864674406024288 -0.03590935263184201 0.0
153 2 13.552029028241876 15.4167208578637 0.0 -0.007498889889934237 -0.06534399812666572 0.0
154 2 19.153202972582058 4.065176898647629 0.0 0.030858045434453075 0.06207158554062561 0.0
155 1 11.911750718908792 17.887270494275768 0.0 -0.07194131126481923 0.033210102686526126 0.0
156 1 11.633262742559559 19.55815960883089 0.0 -0.06790110260447324 -0.02933626906658417 0.0
157 2 4.605155735350909 16.017210368667612 0.0 -0.060971680081151704 0.0037069537383461804 0.0
158 2 15.892680748047903 14.3957899067494 0.0 0.07759202502486866 -0.017726590999498346 0.0
159 1 12.305884620370612 3.7864539573193974 0.0 0.07434059084238596 0.052787143599500375 0.0
160 1 0.9536148531854741 8.525334783448612 0.0 0.13899756115088116 0.11145785127522781 0.0
161 2 6.13145684984425 4.001989189419141 0.0 -0.011139234994314344 0.008716336959331179 0.0
162 1 19.48248874876713 0.6478274552660854 0.0 0.05007669416665952 -0.055990469678496926 0.0
163 2 3.8247306987588883 16.999966792831675 0.0 -0.10810695139881427 -0.04175640833305776 0.0
164 1 1.6203509913290728 16.280335024772167 0.0 0.05602311583248327 -0.010943853708320362 0.0
165 2 10.394712781393515 2.7528395986764935 0.0 0.06816765068122897 0.006826946447457794 0.0
166 1 9.237796450210103 5.941849986829911 0.0 0.08911750417324621 -0.07493248565544554 0.0
167 2 8.93391820716352 1.32685221740307 0.0 0.021611454499180623 0.07058903135564186 0.0
168 1 13.31808796163301 9.086542410248903 0.0 0.04093194184118869 0.01148194659898617 0.0
169 1 13.709077395082712 12.344120220145363 0.0 -0.030786951671783178 0.07187476748676616 0.0
170 1 17.888123674885275 5.79045179087261 0.0 0.02679952437953666 -0.07452672047399989 0.0
171 1 13.970011263036138 4.665327231395225 0.0 0.008923966179309835 0.21284279548099852 0.0
172 1 15.685658276488523 4.640392966430576 0.0 -0.017738502171941017 0.00040861713372217196 0.0
173 2 14.82648764760916 5.315743435386685 0.0 -0.10236344267522111 0.02114127943423017 0.0
174 1 0.3050857901463333 0.3209060795722531 0.0 0.04705988757201318 -0.005120351856747016 0.0
175 2 1.3505547506311644 17.347931617750444 0.0 0.05774343459787228 -0.029555176923883472 0.0
176 2 13.883823083850258 10.58884846544055 0.0 0.07024550573708807 -0.020466883676668844 0.0
177 1 1.4162807228955974 4.663604327832454 0.0 0.0988981407033667 0.014635423596718648 0.0
178 1 14.270885394248893 17.321028312608668 0.0 -0.01087667086095153 0.10637183671107486 0.0
179 2 1.6546840975168877 12.599463449652719 0.0 0.0012599535634198519 -0.08978742353145489 0.0
180 2 3.3086233857077 0.44313589894258565 0.0 -0.014599794679593173 -0.028688442968495504 0.0
181 1 18.13818212010758 7.826382765471333 0.0 0.06835070894565633 0.026622928346547975 0.0
182 2 5.373416037291151 1.5999759955387534 0.0 -0.0028234585638091452 -0.04241340779487866 0.0
183 1 14.57909133599509 17.92263539939893 0.0 0.019594372178556207 0.04486893697098354 0.0
184 1 18.786375046987295 8.051397356785346 0.0 0.11329784719338847 -0.0074934739263465945 0.0
185 1 9.181894542587317 14.963060249259124 0.0 -0.03939390047635749 -0.0907806128127028 0.0
186 1 6.626326815868496 15.01934366620529 0.0 0.001941358108778921 0.07229645864567906 0.0
187 1 11.532978456841274 2.651734113047113 0.0 0.1069971429859327 -0.019933779961854036 0.0
188 1 13.047190805519689 3.79541014545955 0.0 -0.008087389149350224 0.05946575965818937 0.0
189 2 9.568663374958748 17.652473515925916 0.0 0.045262820511497305 -0.0009726246561892758 0.0
190 1 2.292490156773349 13.51759712902794 0.0 0.08363095958279762 0.04796793058272352 0.0
191 2 6.464985227584444 8.476251766586623 0.0 -0.022939831857758188 0.043900110996225435 0.0
192 2 5.7805326957928305 6.464553821970418 0.0 0.024192688494380863 -0.014207313859673327 0.0
193 1 13.120214943792057 12.056633669925604 0.0 -0.04631020061535085 0.005160136012583249 0.0
194 1 7.066701499814073 14.4307051278322 0.0 0.042569726315275266 0.06632363697725041 0.0
195 2 13.517527629964787 18.147848795947578 0.0 0.0824895680945804 0.04529622510908328 0.0
196 1 1.1981464342981019 14.20288921299841 0.0 0.044591206651669615 0.11133251768017628 0.0
197 1 4.967125067118974 13.947670998851894 0.0 -0.07780320532485412 0.002765923567683221 0.0
198 2 4.033670890905719 7.5566654662723405 0.0 -0.020726605446338954 -0.08544423907363716 0.0
199 2 5.835686065104362 16.166279730628464 0.0 0.04399608408498212 -0.01733549938550449 0.0
200 1 3.150879282824548 8.292400939160716 0.0 0.0010648988094087582 0.13491132919088766 0.0
201 2 6.290321273639916 17.3548882398865 0.0 -0.002561220096653045 0.011729704910735154 0.0
202 2 14.04737046344449 2.3378209084349577 0.0 -0.021563077695423684 0.041978194009226776 0.0
203 2 11.0404674649212 8.548700081617543 0.0 -0.004743368075578283 -0.027623295452986005 0.0
204 1 12.552532921992157 11.683340305658966 0.0 0.023043060941394668 -0.0626860889888405 0.0
205 2 7.0343777740188145 6.399764920264261 0.0 -0.008236212025781654 0.045837436865776265 0.0
206 1 3.522799706341928 11.711280244435672 0.0 0.08938590182823204 0.02669262016352715 0.0
207 1 4.743964794419787 13.298619009658548 0.0 -0.14276590722071944 -0.05878108452516732 0.0
208 2 0.7275502804553968 10.591042494075158 0.0 -0.032355725945059095 -0.0887116068224906 0.0
209 1 18.349348504229056 9.888252299661202 0.0 0.04815913601109484 0.04874611754804414 0.0
210 1 10.363644941314337 11.525307649652195 0.0 0.1811868022471001 -0.01524921566925573 0.0
211 1 7.722878947048594 12.043893205991347 0.0 -0.03799979049658081 -0.0870266963909756 0.0
212 1 12.493486058538132 15.246428524493833 0.0 -0.013505081239052835 -0.037369093801090436 0.0
213 2 4.284330338926467 5.023672457444221 0.0 0.011975494364841334 -0.0566696239325716 0.0
214 1 0.8084329812192915 0.7706434111264551 0.0 0.06639694995942975 0.0050757743045389435 0.0
215 1 19.3893047552692 12.79633921460643 0.0 -0.05945103899474536 0.06448350829352231 0.0
216 1 14.656226724036873 1.0303681959921436 0.0 0.15140960585827723 -0.10325144869760378 0.0
217 1 13.080774913382104 9.721358587759093 0.0 0.054415570515656944 -0.03839365846448388 0.0
218 1 18.41185274254058 15.38105951392628 0.0 0.08825406445631936 -0.15028088662701883 0.0
219 1 8.629701634343451 6.192481974371505 0.0 -0.020286725382054217 -0.052452599811337125 0.0
220 1 15.269139458437026 6.411628096494919 0.0 -0.046818680578104954 0.05317858848366244 0.0
221 2 11.710822264338326 13.05634494562603 0.0 0.019505888106656995 0.055870419027614616 0.0
222 2 2.8632397003340495 7.234250156556081 0.0 -0.07690174049994893 -0.005383599466291344 0.0
223 1 7.34414849051249 15.033035249594084 0.0 -0.08180006022279507 -0.0031923355676801214 0.0
224 1 7.419413703071 11.36569532246476 0.0 0.09611264570493105 -0.01414432781656651 0.0
225 1 19.2100113930569 5.161411337661634 0.0 -0.05883114971371393 0.0038785041934033364 0.0
226 1 19.609689251703653 3.0504925546470645 0.0 -0.01083813427476917 -0.0010173692296898394 0.0
227 1 8.975998599116247 4.876433247286633 0.0 0.11170957832385162 -0.10878253383963914 0.0
228 1 13.692303103434853 0.0818811191287939 0.0 -0.007856776470023153 -0.08402709588536911 0.0
229 2 12.74485359554216 6.684659250663153 0.0 -0.04653494910921646 -0.06056675932749759 0.0
230 1 0.5480944508239293 14.353954683083224 0.0 -0.05366220973807547 0.08870993288020565 0.0
231 1 9.509931543452453 10.397058959707714 0.0 -0.06783574603264866 0.03696094673113065 0.0
232 2 11.488596337026038 11.818110003938878 0.0 0.07203025969255075 0.017766514971740657 0.0
233 2 8.039085474573294 7.072883334435141 0.0 0.04025993320239892 -0.07245104214991688 0.0
234 1 18.490204608108712 17.840703328478448 0.0 0.01962248659458756 -0.0067428915834470094 0.0
235 1 8.968771025429572 19.12747844833557 0.0 0.02957515520468631 -0.08061272552590491 0.0
236 1 12.399671538621453 18.380677493182453 0.0 -0.024240386355576283 0.01212755834070131 0.0
237 2 10.53500049403565 12.614120845384866 0.0 0.013830502742166068 -0.002469221214255167 0.0
238 2 3.860076008281628 1.6285411253268844 0.0 0.04554508801266964 0.06568562857862213 0.0
239 1 4.380710782144451 8.586048818097344 0.0 -0.09243988584187629 -0.07482510596068226 0.0
240 1 9.631206079837789 4.524030548379021 0.0 0.027376407987053205 0.013289725464389623 0.0
241 1 13.146340694054386 11.387931194791253 0.0 -0.009389588783350307 0.12838360730292067 0.0
242 2 10.610298546683225 0.1605791997388155 0.0 -0.10066113617519269 0.11069950913940188 0.0
243 1 15.903893837681016 5.295603536912148 0.0 0.05082033892299143 0.01022912346815486 0.0
244 2 2.383881890428559 6.070305095455723 0.0 -0.02638557462112709 0.09415661942823808 0.0
245 2 15.075196752376614 7.483513618246913 0.0 0.007390572816384629 -0.06263034403238425 0.0
246 2 7.645380959654316 9.140910930095458 0.0 0.01488100079301042 0.05574203399575546 0.0
247 1 12.332347001359699 2.528413656382761 0.0 -0.08661099505566712 0.18760318450688415 0.0
248 2 16.16273750198287 11.776785461260342 0.0 -0.07352651726828381 0.0680374629670643 0.0
249 2 10.297255703026991 15.012657034729616 0.0 -0.02354961713396388 -0.09114551103852213 0.0
250 2 17.149533242296076 0.09529863003975858 0.0 -0.05904621102799522 -0.01115695146542981 0.0
251 1 0.19613971349941522 6.18014393167764 0.0 0.1099739937471343 -0.041108423958279995 0.0
252 2 1.280120682506931 19.536933496903355 0.0 0.0478138740827555 0.027179003205439225 0.0
253 1 0.217018470777323 1.0984975670339021 0.0 -0.010209162292650394 -0.056486458601373454 0.0
254 1 2.373894012834987 2.525703327671247 0.0 -0.061625349515075395 -0.043247197954789825 0.0
255 1 15.311634417622805 0.8392452929385846 0.0 0.14658613263933107 -0.08657575085678133 0.0
256 2 14.267126833779278 8.50413987512318 0.0 0.012166328953930047 0.039873448996571415 0.0
257 1 0.10286321479227349 4.897500267034682 0.0 0.18865547633711408 -0.08046527601303548 0.0
258 2 9.473541615614067 13.886774410485671 0.0 -0.04516059080808886 -0.03091698204859427 0.0
259 2 15.68848280451789 15.724363320475522 0.0 -0.02030211880514134 -0.024756626615804134 0.0
260 2 16.729758921374124 3.7328551219160766 0.0 0.02334966192126645 0.025906173359196684 0.0
261 2 8.55655855735323 8.218335541295714 0.0 0.008046951267980674 0.011565400843383379 0.0
262 1 0.024688852322584217 5.544672946992233 0.0 0.01862340404534999 -0.18568207575366943 0.0
263 2 7.0312951220576965 18.362848312094282 0.0 0.02251772348860095 0.08190518284959838 0.0
264 2 17.917016895644494 8.884812008306207 0.0 -0.017886009053836697 0.08566998693369528 0.0
265 1 14.205967147994489 0.5133688378061839 0.0 0.004126273109278593 0.011441482095934239 0.0
266 2 5.116520082823234 11.681914231086026 0.0 0.01714316802042943 0.014168491405438945 0.0
267 2 19.232297909460996 18.610616230329946 0.0 0.04016872999782657 0.033820436442381384 0.0
268 1 18.21327073558498 0.18193661468063693 0.0 0.1087551422565728 -0.12174083928755436 0.0
269 2 11.868800378832566 7.59360555570141 0.0 -0.05227501224103388 -0.10055909457286136 0.0
270 2 19.60573936030043 15.194301943173215 0.0 0.06553183083229869 -0.09238852327047906 0.0
271 2 11.175397678695528 5.101593471929078 0.0 -0.010383458390350207 -0.009283328472491022 0.0
272 1 18.100531807452633 10.547387590743957 0.0 0.06587311417492767 0.058916655713826 0.0
273 2 0.6992836885829327 18.41548310799754 0.0 -0.0037591766961521333 -0.08393611832875682 0.0
274 2 7.141950233868796 10.315422228756255 0.0 -0.019894961894642838 -0.052266918602097076 0.0
275 1 14.016635982205488 1.2474455978869659 0.0 -0.03496237848296752 -0.014971473843589813 0.0
276 1 11.717422270551392 18.532061152541708 0.0 -0.09416325283000615 -0.17670518854888265 0.0
277 1 11.084445388108838 18.322471838989845 0.0 0.05914433097950368 -0.02218148203982097 0.0
278 2 19.03391724698603 16.276273425325233 0.0 0.06381291946444295 -0.06159571033045123 0.0
279 1 15.624278460215617 9.580288553835665 0.0 -0.06896077869963323 0.08792653687404164 0.0
280 2 7.909802519100722 2.1160492172977134 0.0 -0.03299898152572904 0.010979854652823107 0.0
281 2 5.30432570327434 7.704580757852658 0.0 -0.05089045643105598 0.04930044778402953 0.0
282 1 10.602903013030726 1.5699825418271671 0.0 -0.07405082474100914 0.08913917537283003 0.0
283 2 16.731320152839096 9.427765105124676 0.0 -0.025596128309219476 -0.04066806529262755 0.0
284 2 15.540007144300832 18.416980946501855 0.0 0.038484413397616164 -0.08443776378789862 0.0
285 2 12.402656775036995 10.597818244816544 0.0 0.15439596089853538 0.06454215154480085 0.0
286 2 17.782842075771647 16.289946395981985 0.0 -0.06096764710336078 -0.004366399776324317 0.0
287 1 14.853831283040893 0.3618408804363086 0.0 -0.13094521254113034 -0.10131075943288285 0.0
288 1 16.33964524659169 4.785785096342955 0.0 0.05701463725233062 -0.02121902928589649 0.0
289 1 3.713024148786009 8.679209665328226 0.0 -0.0184099965844237 -0.1022805304814168 0.0
290 1 0.3508145791352161 8.262427825294274 0.0 -0.19813113449419512 -0.052636225252488615 0.0
291 1 16.833471015039038 2.654421007527764 0.0 -0.030638160230150147 0.02484690450958005 0.0
292 2 2.026212315584256 8.28915305813034 0.0 0.07586339895694742 -0.09395002770936957 0.0
293 1 9.36628329914087 3.620456291222454 0.0 -0.028519306503348177 0.12419702337828796 0.0
294 1 2.907017581071676 19.131119010647854 0.0 0.0682052952923576 0.04285965881313641 0.0
295 1 17.945780772869547 14.85656407372399 0.0 0.015048670168973512 0.050371908594750735 0.0
296 1 10.080431482754067 5.03833337848954 0.0 0.074494957584141 -0.004612678974200944 0.0
297 1 12.690765861128469 4.366544087262367 0.0 0.07664840388916602 -0.04763845331996092 0.0
298 1 4.709691084408872 6.689195783455116 0.0 0.046458353229175096 0.10495267678695365 0.0
299 2 17.16924474386227 14.050849426875326 0.0 -0.02777242743704105 -0.10580978135762707 0.0
300 2 17.018325584585504 8.025515155584715 0.0 -0.01651628348032364 -0.02277867355379071 0.0
301 2 2.227240981833471 14.673488652315301 0.0 0.02539266959550113 0.019399535162258 0.0
302 2 15.811283275472169 8.497921123508188 0.0 0.06370995955543947 0.009111946082822302 0.0
303 2 1.50121380711001 9.443366135706926 0.0 -0.06078821455901593 0.0022789255172481473 0.0
304 2 8.391054622722118 18.172672699443357 0.0 0.023604036528763948 0.13674176970120624 0.0
305 2 19.569513637788003 17.42139834296423 0.0 0.003137506111628606 0.00914282677137392 0.0
306 2 13.288191340108666 16.795262019070233 0.0 -0.12809555641410092 -0.06939934629799405 0.0
307 2 7.825950980483616 0.8126595255505752 0.0 -0.06317002937647592 0.05078875098989806 0.0
308 1 13.67191175196965 4.062454588236961 0.0 0.010205106718131338 -0.01226125348384852 0.0
309 2 17.586478011319397 6.86054983416224 0.0 0.06978095256344095 0.01779918349527236 0.0
310 1 1.0994733088984163 2.920495179957568 0.0 0.0631974177338743 0.04351488368514519 0.0
311 2 10.294447815705103 6.101390528787224 0.0 0.044415454220858984 -0.005178112985863186 0.0
312 1 7.055285548208398 11.94509130135623 0.0 -0.07185475199766685 -0.042832239872377255 0.0
313 1 3.7175685886225556 4.065001576790483 0.0 -0.11823924462313992 -0.009635273366138338 0.0
314 2 15.369747875256682 17.12568052591637 0.0 -0.04447010206164822 0.0009166082108489661 0.0
315 2 2.8364204882513326 9.388540402052993 0.0 -0.02697194709966483 -0.03529742513486279 0.0
316 1 11.86557871837673 2.0439553018612635 0.0 -0.05790216272294887 -0.025523561116783673 0.0
317 2 11.160065342615631 3.7378774917394977 0.0 -0.006469361856599075 -0.0923612110959949 0.0
318 2 17.41926062168369 17.575037012453972 0.0 -0.0015056051680875896 -0.10080572695383558 0.0
319 1 12.10442153618873 19.05575764802085 0.0 -0.04987153730607952 0.047944223279744555 0.0
320 2 5.480422862384776 14.91343739046361 0.0 0.11646529973881313 -0.02540725425424689 0.0
321 1 13.09694667883143 14.398020075972527 0.0 -0.010476998299907916 0.07402289248635713 0.0
322 1 5.034228408786058 4.244655677188804 0.0 0.01430596284535858 0.06700196912070751 0.0
323 1 18.86969011900974 9.463472441996228 0.0 -0.014138148550439215 -0.05488192470920592 0.0