ITEM: TIMESTEP
0
ITEM: NUMBER OF ATOMS
400
ITEM: BOX BOUNDS xy xz yz pp pp pp
0.0 19.7609 0.0
0.0 19.7609 0.0
0.0 10.0 0.0
ITEM: ATOMS id type x y z vx vy vz
1 1 6.071433427455703 13.506490317143617 0.0 -0.05281398154867561 -0.027039324827153856 0.0
2 2 13.543715167277446 19.26086798589159 0.0 0.04191836326904102 -0.010184434185124767 0.0
3 1 10.752077377796825 1.6395948287052426 0.0 0.046151043336700566 0.11158263005820887 0.0
4 1 6.3126208372584935 15.276065702394266 0.0 0.10284500685006447 0.04438786566979975 0.0
5 1 9.780881808793442 13.92524518372268 0.0 -0.1271473883160141 0.14805742366148839 0.0
6 2 2.7336225654390955 9.072732441679513 0.0 -0.05975611520588193 0.0016996930402462126 0.0
7 2 19.334500592339683 4.511094428948869 0.0 -0.01776515818003581 0.04722484714723876 0.0
8 1 2.316809709217987 19.182462219576347 0.0 -0.10369614952377511 0.17447227578691604 0.0
9 2 12.371894841531581 5.249339784470362 0.0 0.013545314645511243 0.013370642224517396 0.0
10 1 16.390731638256607 10.256821813884251 0.0 0.06975319270057775 0.049517599801426636 0.0
11 2 19.220713045325066 11.817321114252792 0.0 -0.04912345749053123 0.040793194697883145 0.0
12 1 11.041186277297472 8.210268006376916 0.0 0.04409263132926543 0.06214159235052344 0.0
13 2 17.263077434912066 14.566262041541105 0.0 -0.021584836709634868 0.0075743314845915476 0.0
14 2 14.934579486247072 15.968207077224674 0.0 0.024529130114117424 0.030746225338541294 0.0
15 2 4.74949639591099 2.8912030133335804 0.0 0.054505556884233905 -0.023011175004263345 0.0
16 1 1.0839960954647065 10.479235928418642 0.0 0.0715298094690918 -0.029223933126139665 0.0
17 1 12.079298211549306 15.321108715594342 0.0 0.1265990344871158 0.09899004206257096 0.0
18 2 7.333501025762289 6.262260925473158 0.0 -0.001975346424149283 0.00926884995321981 0.0
19 1 15.28113748850884 9.593253088962202 0.0 -0.006529638252667077 -0.08357730575535104 0.0
20 1 11.591487012549662 19.733489808915415 0.0 0.06986362841334996 0.051521372658552764 0.0
21 1 13.254625594598059 17.670294608572956 0.0 -0.09062709894127059 -0.009509920971315056 0.0
22 2 6.388311333442405 7.1343242344398945 0.0 0.010369258422042166 0.06334727849288518 0.0
23 1 0.5632038489227568 18.44505964014167 0.0 -0.0884935951357282 0.026877453099988194 0.0
24 1 18.389490593719316 8.28012392392929 0.0 -0.129641804896213 -0.003774415389973467 0.0
25 1 5.8511358493615 11.277628946954271 0.0 -0.0724364057257035 -0.0692079386119202 0.0
26 1 15.018503853421898 4.111437894936115 0.0 -0.126334859627886 -0.018757770943138796 0.0
27 1 5.186121255788787 11.049738301183359 0.0 -0.013432248696196232 -0.016501385232054362 0.0
28 1 18.996160216043087 14.226412930758228 0.0 -0.07769715223324138 0.10997581902146403 0.0
29 2 12.730012834988445 3.803438874249468 0.0 -0.05268125812663704 0.04078246261026218 0.0
30 1 9.470025055247689 14.532323915089147 0.0 0.07302522689634657 -0.11548688644802568 0.0
31 1 12.94168526798311 16.42026354747691 0.0 0.022687456643182443 -0.11611639529937257 0.0
32 2 4.799517810337713 1.6367911334080654 0.0 -0.01845917140618278 -0.1474016020546653 0.0
33 1 11.044797988079619 10.412107980757787 0.0 0.056284368004519206 0.07959175800629151 0.0
34 1 5.202141863835891 18.756556234952775 0.0 0.006991117867310586 0.14258115388901893 0.0
35 1 2.8236333186584166 10.134340550012707 0.0 -0.011451159089496864 -0.10795788127042061 0.0
36 2 1.1248832138484617 14.76612531643009 0.0 0.06808734985631104 -0.06862527296766034 0.0
37 1 12.500473811244982 19.48382389232886 0.0 0.08161676264774882 0.0032324015757927843 0.0
38 2 4.096289041552817 11.285462884629828 0.0 -0.08943903876301224 -0.04105303101400977 0.0
39 2 11.321004802494656 9.288572969921008 0.0 -0.03214179394648688 0.15414656065031285 0.0
40 1 9.394581630130926 13.323176399286178 0.0 -0.06360196568876053 0.013318174577677732 0.0
41 2 16.35706067530145 2.293085932166597 0.0 -0.025943687790473017 -0.0966550882619567 0.0
42 1 18.255620388426724 12.361615714398546 0.0 -0.05279435096919986 -0.15450516057559127 0.0
43 1 9.619616979285295 15.195802337927068 0.0 0.06713336006520944 -0.07985942329437791 0.0
44 2 0.27518074216294036 13.875221579870288 0.0 0.021981131111351217 0.051284010785422635 0.0
45 1 5.935397932010107 12.866688345131417 0.0 0.029944441543938077 -0.04734156563190771 0.0
46 1 0.7939395318691472 15.87858466151275 0.0 -0.10981692921012799 0.02822225419462068 0.0
47 2 19.690283529705184 15.084485345902014 0.0 0.08862124969703047 0.09668886761954233 0.0
48 2 1.8259130180553729 0.4097308839618068 0.0 -0.0024410985965632854 0.032059268065825146 0.0
49 1 11.583283812965222 0.6444286514379538 0.0 -0.002434205121291824 0.004511451760771081 0.0
50 2 0.4566366141005167 12.625726971458308 0.0 -0.046062792357527464 0.009837260107011575 0.0
51 1 10.066025351157801 5.6036866323928365 0.0 0.10237543001225084 -0.03135050542709085 0.0
52 2 2.1660117139230883 7.78642339132322 0.0 0.05496367113829939 -0.0333256430197638 0.0
53 2 1.6557928319062036 12.200819645287664 0.0 -0.07260471180938212 -0.10998620704824122 0.0
54 1 11.719551557682857 8.184209235738932 0.0 0.059340836700227696 -0.1463868269061547 0.0
55 1 9.452707668431506 0.4705711648528442 0.0 0.03477474031513506 -0.01923092365726341 0.0
56 1 1.6659151649212651 19.085979254791592 0.0 0.09316343009037258 0.023051993516523803 0.0
57 1 8.449654879332119 14.121751533994813 0.0 -0.04920029882862712 -0.05866664996666401 0.0
58 2 2.4093974263447424 3.7026614092411942 0.0 0.036074684195602134 -0.04091543675473365 0.0
59 2 1.4957389570383084 8.850598398122186 0.0 0.048843202065064255 -0.007371010028233319 0.0
60 1 4.378774426032734 0.6138144226686675 0.0 -0.03261280521809552 -0.01606106861934016 0.0
61 2 7.301457167427501 16.617067731717245 0.0 0.026014166544553297 -0.07255840935868993 0.0
62 1 9.83345340821447 9.955318708045116 0.0 0.05411123782363199 0.19030524466771342 0.0
63 1 14.543970065094825 4.581611764666741 0.0 0.10860954193813728 0.05296508491751338 0.0
64 2 14.644869243809236 14.707641138282249 0.0 -0.07295436045944903 0.017977221941693742 0.0
65 1 7.802824452907248 14.360235949759554 0.0 0.05291783875425039 0.03848025323246817 0.0
66 2 8.353792755436706 18.521645430386474 0.0 0.010029045908641822 -0.058760846473839265 0.0
67 1 10.358317612976652 8.695984526486395 0.0 -0.05978517065718661 0.1086197724475404 0.0
68 2 0.7022866400171702 1.068575137289453 0.0 -0.032021915265285014 0.0345607664076928 0.0
69 2 13.998217456792357 3.6134881725429255 0.0 -0.0737995600077942 0.02632254670715596 0.0
70 1 11.520583995882607 2.6038661300124293 0.0 -0.013816635480834762 -0.030877334409562817 0.0
71 1 16.27443790836877 4.342980371559451 0.0 0.04784556381893406 -0.0004376641191860995 0.0
72 1 17.200812166294348 5.31998547321293 0.0 -0.08144007030093552 -0.02400770022671237 0.0
73 1 4.799271853799138 10.466467783315954 0.0 0.013261302000841973 -0.024451013719990755 0.0
74 1 12.93667640107194 17.097085584090266 0.0 -0.022304073325082586 0.07858858639692408 0.0
75 2 6.2340640182838705 18.497343257455004 0.0 0.047978226010442875 -0.034202596991955624 0.0
76 1 5.580388272204763 17.631545425124663 0.0 -0.013438903314367775 0.03300131000252473 0.0
77 1 7.520867363402735 0.4654880247530671 0.0 -0.08904258988968222 -0.02895117079317012 0.0
78 2 3.6978844569897245 13.852161605218244 0.0 0.028901734409826692 0.033179718139820576 0.0
79 1 9.087226955510165 11.531572842460466 0.0 -0.02346237917072678 0.10675487700426864 0.0
80 2 5.471382223417219 8.09790708092428 0.0 0.10571616787442699 -0.03246693689254356 0.0
81 1 10.183185565596542 1.2972409391627 0.0 -0.11604584940444866 -0.026176083569819018 0.0
82 2 19.039455404464807 13.11441408704192 0.0 -0.06003292101592578 0.07073255428349716 0.0
83 1 18.112602055673843 7.6191422435727905 0.0 0.013690897435389681 0.025822230671691898 0.0
84 2 7.804032457604353 12.658037365052541 0.0 0.01130973388486788 0.06473615046957534 0.0
85 1 1.3790545955103266 3.9938888963216503 0.0 0.03934513941894105 -0.13638293802785884 0.0
86 1 18.012321849057752 6.471779555833649 0.0 0.035236747953067166 0.015792769625576582 0.0
87 1 3.1828109803686178 10.6828498553041 0.0 -0.03518931214166882 -0.13409977591983455 0.0
88 2 13.318593170193841 11.316265522525288 0.0 -0.025748047982324065 0.024354354291651 0.0
89 1 18.081614037477227 11.704216437395747 0.0 0.02090956699355669 -0.14682545831069638 0.0
90 2 6.708276218607965 8.377536008495648 0.0 0.00443690441353339 -0.013422691936099188 0.0
91 2 3.6210497106154094 2.171673831876974 0.0 0.0444643756226933 -0.002988070943116046 0.0
92 1 3.2497568244662554 8.121927671385954 0.0 -0.0068572154282297675 -0.112176255362842 0.0
93 1 7.132551986957713 14.286423863424492 0.0 0.05171424538000486 0.11883213851386795 0.0
94 1 18.268960485881966 1.870375887144619 0.0 0.08854762673024116 -0.061806463984846 0.0
95 2 7.9341649051597996 1.5143102855645192 0.0 -0.03624464583574959 0.0680773149981109 0.0
96 2 16.909798045894163 0.08491832651409326 0.0 -0.07110066811616486 -0.012145651018205713 0.0
97 1 14.854291779149971 12.630569361583252 0.0 -0.04934993982859617 -0.035547762133297765 0.0
98 2 15.516838329692929 5.129691017360387 0.0 0.01148567444212496 -0.02920148815950378 0.0
99 1 3.8432344614897658 1.0548803361927508 0.0 -0.1593386916754021 0.02261603797257613 0.0
100 1 12.849036767135944 0.3342665941776788 0.0 -0.06252183807490683 0.04287117504538094 0.0
101 1 6.480485959217818 14.606605065814158 0.0 0.17263326395265863 0.02275244278332413 0.0
102 1 6.591456877355858 13.91278674030492 0.0 -0.07871120647391965 -0.0061384693545127956 0.0
103 1 19.595665450506242 8.69118418656043 0.0 -0.031348971715613 0.06183193772650006 0.0
104 2 4.964247835986438 13.43684633184015 0.0 0.06904913266077449 0.03241704981972432 0.0
105 1 8.816682617433212 12.15697863368465 0.0 0.06591334161112364 0.07408600740733573 0.0
106 1 15.233551405082958 8.904564035370345 0.0 0.05673129107888229 -0.030557155341857108 0.0
107 1 5.1764846840914815 9.196078573931002 0.0 0.044840529704507005 0.04311601971258406 0.0
108 2 3.899196965438144 12.563525043164391 0.0 0.04847402120806892 -0.010859248786655147 0.0
109 1 8.124863402234913 5.505991262153926 0.0 -0.022022052725084843 -0.1861314951008977 0.0
110 2 17.52319627139529 2.738353602925475 0.0 0.07685667222929532 0.029018844829921033 0.0
111 1 12.21353179861996 8.672364554980799 0.0 -0.01931635569058494 0.07431535140982279 0.0
112 1 16.819484931487626 8.166511698619836 0.0 0.010427426862838056 0.015535618123520271 0.0
113 1 5.411950639260134 19.437468687438162 0.0 0.06405642789033465 0.06480328279844356 0.0
114 1 12.720226979446128 15.233930376617698 0.0 0.027292230404833827 -0.07486593266742522 0.0
115 1 10.151186455741703 14.48720581686021 0.0 -0.013081626186124212 0.15481657416814645 0.0
116 2 7.613889583189641 7.4857270181293005 0.0 -0.007619068823083323 0.05338232908775888 0.0
117 2 3.228936419678371 4.5981209709934925 0.0 -0.02014744681930971 0.028992178079946012 0.0
118 1 18.76063457122663 7.692961018798195 0.0 0.021959608749821738 0.051303735188048046 0.0
119 1 16.589766246697575 3.3817544840050537 0.0 -0.04768888066358408 0.09972396741358483 0.0
120 2 12.526101900108042 9.721409149019683 0.0 0.002665328883315789 -0.05718464281598688 0.0
121 2 18.804575262814325 9.424793317949922 0.0 -0.011367016105321788 -0.02424101197231929 0.0
122 1 2.3861305741891172 17.881715642799538 0.0 0.018012665226241096 0.06175973982057333 0.0
123 2 10.085086742660025 11.029819275347684 0.0 0.012196225113865861 0.01834546354908563 0.0
124 2 6.714865444561314 3.7505509420744 0.0 0.0906217423091497 -0.030565377500577195 0.0
125 2 14.106628473582353 13.402336329891993 0.0 0.049450092021061196 -0.029465036404710307 0.0
126 2 4.512621143298401 4.368957821591667 0.0 0.0472344830378609 0.05829649474857584 0.0
127 2 4.159296177057159 15.910279874876943 0.0 0.06927994430296536 -0.009779896660341162 0.0
128 2 9.529328530552833 19.09373536469531 0.0 0.02158381273821162 0.03717455109856026 0.0
129 2 1.4451842386005613 13.437193835442754 0.0 -0.0031205792465096877 0.01676516084397282 0.0
130 1 12.299941509594532 11.792133828790531 0.0 0.031952454234924085 -0.022955690346518138 0.0
131 1 11.923071050705309 19.154210727996684 0.0 0.01246875119651005 0.040153068714370986 0.0
132 1 8.964400591772874 10.878163447210236 0.0 0.00038501826317943467 0.03598608025477421 0.0
133 2 17.130738540219554 11.074313147512763 0.0 0.002483581602537905 -0.16566648957107874 0.0
134 2 8.59403274767264 2.6068015576565293 0.0 -0.05294967429592936 -0.0059522350927559906 0.0
135 2 19.559261847510548 6.973108770579324 0.0 0.03061729218780553 0.05236698508505004 0.0
136 1 15.90427731439603 3.332864846451666 0.0 -0.016912405609813722 -0.04604801632111469 0.0
137 2 17.288514613969927 15.811163983336806 0.0 0.020135534823486734 -0.05977061001292746 0.0
138 1 8.898965799187307 16.30054179237421 0.0 -0.0024343855403191578 0.007092236207729555 0.0
139 1 1.4762993703874285 9.941763609014657 0.0 0.00014360255934644885 -0.15947224946691924 0.0
140 2 7.896051902005704 8.821804299928573 0.0 -0.05544861312819507 -0.04990387538497609 0.0
141 2 4.620147788687332 17.07135263119269 0.0 -0.01574230241227374 0.08740944873968892 0.0
142 2 4.945278735881837 5.60429246079864 0.0 0.06029731138986078 -0.0032108126962384436 0.0
143 1 0.4660199011268828 8.479032592558163 0.0 -0.053637869061243786 -0.00958757448224342 0.0
144 1 7.302214564100118 18.93761959190381 0.0 0.019941715528007695 0.0460528791643229 0.0
145 1 9.57384192993621 6.059992023146467 0.0 -0.06416612517242562 0.14484318448494415 0.0
146 2 10.736875157613145 17.21227896603799 0.0 0.012507963113336261 -0.0014640134483396676 0.0
147 2 11.254148324267652 14.58992100851212 0.0 0.010533718832077073 -0.167609116502585 0.0
148 2 14.003282495409438 16.868506335773482 0.0 0.04001071312913606 -0.06295758119983255 0.0
149 2 0.6642032740649207 19.560101194171956 0.0 0.04782701429203985 -0.06047161420831982 0.0
150 2 19.288722263616517 18.910211972611034 0.0 0.012215572529431975 -0.016075704508469416 0.0
151 2 18.258288736015906 16.68682166317516 0.0 -0.07664451516931496 0.07518545575640138 0.0
152 1 15.178771896634826 3.453880019642308 0.0 -0.04798663776032088 0.02163259314877605 0.0
153 2 15.039828297689915 1.811398843805837 0.0 -0.040430016363374566 -0.055014020957257895 0.0
154 2 10.982680250423098 7.067976042673418 0.0 0.01568165611471294 -0.05233931948471136 0.0
155 1 10.505274091236332 10.00047178922961 0.0 -0.23094025893776626 0.03282120233414807 0.0
156 1 9.804786694482932 8.290141385339957 0.0 -0.039081394561183536 -0.09018190946227433 0.0
157 2 4.006723917049846 9.032781602896785 0.0 0.03610105142371785 0.008941073688139118 0.0
158 2 4.745855500750548 14.712972973962357 0.0 -0.005084420749114446 -0.06713839636377136 0.0
159 1 16.05348124873361 14.55094359020119 0.0 0.07131509579138977 0.15056817894933375 0.0
160 1 15.596803724377418 8.287420502634212 0.0 -0.07500393897761816 -0.04494076321868582 0.0
161 2 9.916960340901545 12.274321800995407 0.0 -0.015052283723994317 0.039548516295378325 0.0
162 1 6.25089655539319 17.335825546510183 0.0 0.08180412087636713 -0.11035001785321413 0.0
163 2 18.478442717410015 3.5921077486798656 0.0 -0.036788035936842906 0.0408000112878581 0.0
164 1 8.875990240699258 0.8880813410260636 0.0 0.0776599311701971 0.02858448432086805 0.0
165 2 16.149560975698183 16.304255006541997 0.0 -0.00683307246839981 0.023655944123915727 0.0
166 1 11.870866496018696 11.270193857198894 0.0 -0.11864164114727106 -0.030974826290803968 0.0
167 2 4.276198438091109 19.27194901945951 0.0 0.006605485399766278 0.06336890499426198 0.0
168 1 1.1760809518212587 5.882561431533179 0.0 -0.12843825403337183 -0.02678715702811009 0.0
169 1 11.752030258262161 3.2461876921967057 0.0 -0.05852039013409826 0.009815005446725865 0.0
170 1 18.44595660617589 7.010373758623612 0.0 -0.12325494190084103 -0.019328334841741682 0.0
171 1 1.7016814110013365 1.5186238637298328 0.0 -0.11571602203016622 -0.011516197221086929 0.0
172 1 12.37101647323051 8.029853803472136 0.0 0.2800084637102828 0.022783393166322944 0.0
173 2 19.455611270128077 16.301444848084127 0.0 -0.12547902494191007 -0.009954841908849819 0.0
174 1 17.662422056029268 8.127717613177534 0.0 0.07425870642608391 0.13128813525421407 0.0
175 2 14.199908121750898 18.179005774073776 0.0 -0.08890286848819527 -0.03492073636558866 0.0
176 2 0.7512670542018524 4.880452580900233 0.0 0.028184547345091914 0.010101818186363515 0.0
177 1 5.885251234797289 9.099924251563742 0.0 -0.003859770626714026 -0.09543856097159645 0.0
178 1 18.6718943089541 6.341789834655083 0.0 0.0022638959179325383 -0.004661936334467221 0.0
179 2 4.280968314510477 7.764795258967664 0.0 0.007124766405010327 0.0013741925251471645 0.0
180 2 5.969456250390465 2.413503977033183 0.0 0.08810320208547566 0.01950320803629366 0.0
181 1 5.045771044129798 18.102000402227535 0.0 -0.03066240207528358 -0.020894187496137615 0.0
182 2 3.6285821150075463 3.425938883640893 0.0 -0.042679187563295876 0.007503816384571527 0.0
183 1 16.069285850814975 7.202706433976859 0.0 -0.05573116696092839 -0.037056009193663406 0.0
184 1 11.48338740038428 1.9111208388127914 0.0 0.026233383337413346 0.1293693840680509 0.0
185 1 7.242949904566185 13.621003551040657 0.0 -0.056540298947110004 0.10612095228679955 0.0
186 1 14.780049490833825 2.8658962721554517 0.0 -0.08873766049295612 -0.006447079071501429 0.0
187 1 15.504528949601855 7.580383867346021 0.0 -0.0573756413728474 0.09227499669346663 0.0
188 1 10.196878738536453 9.368712542372528 0.0 0.06637794736994017 0.12081042544538383 0.0
189 2 18.143531031211836 0.016685997364422892 0.0 -0.012554875628834908 0.03666677325896882 0.0
190 1 0.11128982779421225 2.575732372588581 0.0 -0.01896818826868345 0.0957180351524984 0.0
191 2 6.1219762567217995 5.905657364489298 0.0 0.002186754053406074 0.03181411248649848 0.0
192 2 10.3149922444709 4.546811777680084 0.0 -0.07883796913958928 0.03616398282519447 0.0
193 1 2.822428244917317 6.902171740099372 0.0 -0.010417666270718716 -0.09419048199157601 0.0
194 1 15.485739434186053 6.867893449868361 0.0 0.17547487078299437 0.007420886898462729 0.0
195 2 3.189297658683198 0.13920476358522096 0.0 0.05805296275399586 -0.0004954863746882757 0.0
196 1 16.351939758570158 15.18786066117147 0.0 0.017981291124320484 0.07085517843266428 0.0
197 1 5.687150886376469 16.960507964712658 0.0 0.04133677628436493 -0.024964129160398026 0.0
198 2 13.483918266379204 4.80558037416374 0.0 -0.041833512848551635 -0.057489794712250866 0.0
199 2 8.11885151727027 10.15091473136203 0.0 -0.012918723242451547 -0.12219763484444726 0.0
200 1 16.605406639679828 4.98571785669905 0.0 -0.1585783620819134 0.04046357830404401 0.0
201 2 13.714115555975248 15.628678810641347 0.0 -0.04429026795628062 -0.014097886593989412 0.0
202 2 5.165338019342653 6.843512605605598 0.0 -0.020740190257762706 -0.022805204075206757 0.0
203 2 15.6365875959911 19.656922105518646 0.0 0.04918870325160097 0.06646300172379613 0.0
204 1 11.960829111922818 7.5304480251295605 0.0 0.06752989219330631 0.03940612504184237 0.0
205 2 9.986052149565523 16.24307304245847 0.0 -0.07225304710921027 -0.019327150142324376 0.0
206 1 6.807075645515541 1.6273836239275294 0.0 -0.011185716988821266 -0.10992938957265773 0.0
207 1 19.70798962247322 8.03690370005387 0.0 -0.18755691715737552 0.05268084483241213 0.0
208 2 10.540435989504884 0.28067600810780297 0.0 0.05602287329752514 0.0011240408785145233 0.0
209 1 14.92322712036826 11.958524720529857 0.0 -0.06970977766918614 0.09239149320904241 0.0
210 1 0.6943795756991223 11.567458107743043 0.0 0.06380809801892363 0.1307820844793689 0.0
211 1 12.334416126096533 14.67702804074647 0.0 -0.06491731756605743 -0.03306552186843669 0.0
212 1 11.71069797693234 10.567678073912333 0.0 0.03706442325980383 -0.017316178774921993 0.0
213 2 12.611187697729788 2.5659034273616537 0.0 -0.005819158168421087 -0.01658770525791048 0.0
214 1 1.223172949394911 18.597801471507832 0.0 0.009631602488380926 0.003176206855128111 0.0
215 1 6.233150864957435 16.577278063321803 0.0 -0.021713319444183 0.1088423143331314 0.0
216 1 14.537582559286543 0.12776888028710173 0.0 -0.053650946775051916 -0.1279457065224555 0.0
217 1 10.410037687790076 18.272534722744066 0.0 -0.04279833404506212 0.12506746549752257 0.0
218 1 8.84863228374816 0.19356070420542568 0.0 0.023104851950699452 0.06775480315264401 0.0
219 1 1.3328560457431862 16.367639062169577 0.0 -0.02191893045806952 -0.07639418499688116 0.0
220 1 8.460188407044795 15.452951821120353 0.0 -0.06898738333712351 -0.13887231314575355 0.0
221 2 14.347178054630342 5.661512152735492 0.0 -0.020266031361875797 0.04289722660719116 0.0
222 2 18.48202237747319 15.413684941484865 0.0 0.039194357246343944 -0.07061691588376366 0.0
223 1 8.083939696134266 4.8282973504455216 0.0 0.030971698956453724 0.006117217460293345 0.0
224 1 12.076072697085566 12.440880244142816 0.0 -0.09792591171816943 0.13153060591099977 0.0
225 1 15.673542676931442 15.14297717541226 0.0 0.04844900496561655 -0.1680528670710048 0.0
226 1 8.92306427931373 12.826993191636243 0.0 0.007951105752357041 -0.05914688942121457 0.0
227 1 1.0637766354202443 2.6755950844304115 0.0 0.05512081315672521 -0.03409904055684326 0.0
228 1 10.920305077032953 2.2805932978021755 0.0 -0.06005146166583854 0.04173692783256666 0.0
229 2 15.744536921948278 11.210260743779084 0.0 0.01158985537396767 -0.06268386931761367 0.0
230 1 5.865517749494124 14.154090492327011 0.0 0.13072518771342934 -0.06804742721793781 0.0
231 1 3.5207611763868023 10.063597751562039 0.0 -0.0160759140961021 -0.05277796785725613 0.0
232 2 5.789771689248584 4.650960414306548 0.0 0.05533999152106535 -0.03875291638763691 0.0
233 2 3.443290477883273 17.433960885404744 0.0 0.0024639443871128735 0.025102149024512313 0.0
234 1 17.922667235686347 8.76309068245891 0.0 0.04492812033688349 0.024395483057410516 0.0
235 1 12.515557211586154 18.799034249079778 0.0 -0.07941490699582458 -0.10728909519480848 0.0
236 1 12.35565625502221 10.803973223546448 0.0 -0.1302668868407022 -0.07895873583588574 0.0
237 2 7.294906273569076 2.6216033137081785 0.0 -0.012409529290350637 -0.018754660680694223 0.0
238 2 13.31263743496549 8.527533379891624 0.0 -0.09130734446636687 0.07104361346658494 0.0
239 1 7.922823012592298 13.715571304832183 0.0 -0.10993703641896752 -0.05877502800929113 0.0
240 1 8.226209396877444 0.4689073585516059 0.0 -0.012270139347151446 0.0353272490019487 0.0
241 1 9.231344048250973 10.266298449897452 0.0 0.12593552472922995 -0.02464130993552452 0.0
242 2 16.291024854403965 9.136604728732346 0.0 0.06992350605322659 -0.02494721151129267 0.0
243 1 6.9983025020175 0.9495048595297371 0.0 0.010617441292477955 0.17180349826690944 0.0
244 2 9.826099907327837 2.3159057716862894 0.0 0.010032472209685374 0.05751129817635659 0.0
245 2 3.2243158773257714 18.612787828141634 0.0 -0.01944598600940442 -0.001750630581295872 0.0
246 2 0.9473984432830946 7.517139522993159 0.0 0.006146008631575173 -0.08864815623565879 0.0
247 1 0.7133475940844751 16.603496305569525 0.0 0.042864311515008156 -0.011878377766530042 0.0
248 2 12.12585734761593 6.44835258207283 0.0 0.05488911264993087 0.06434205947922411 0.0
249 2 2.3674485966862937 14.266090679186208 0.0 -0.05034509724033521 -0.026852314832838328 0.0
250 2 7.022703957102764 4.984383774410154 0.0 0.04263774542852128 0.08711071416057979 0.0
251 1 8.979508192311542 14.990272686561264 0.0 -0.07531592167361133 -0.12620719055428742 0.0
252 2 11.573227424376725 18.13086119421655 0.0 -0.04471040295082698 -0.06325617588579018 0.0
253 1 12.588546185879554 17.69636418129773 0.0 0.1038803628837901 0.035032996106739024 0.0
254 1 6.456745726999292 15.936831565665239 0.0 0.05372321525533751 0.03386258139533879 0.0
255 1 15.686475518629102 3.9752911592998146 0.0 -0.03912419800076095 0.03967505966134671 0.0
256 2 13.176864938750038 12.539696512504207 0.0 0.004820889601594674 -0.0012994584980078737 0.0
257 1 5.622337454342121 3.545627028832209 0.0 -0.02144223608972154 -0.017893376312856694 0.0
258 2 8.35531048151661 17.243089626086455 0.0 0.03671241010658426 -0.04285102183646209 0.0
259 2 7.253631158689248 17.83299763999485 0.0 0.07504510727347 -0.037614738472403944 0.0
260 2 8.027342346454931 3.7501068302965277 0.0 -0.09516360621076547 -0.07912881849252763 0.0
261 2 17.351401395767162 4.177748320779144 0.0 -0.049251001665803575 0.0241800563403428 0.0
262 1 17.260757300875788 8.668625230520265 0.0 -0.04368212275812484 -0.07564699001697266 0.0
263 2 12.421221127487485 1.3477717930171913 0.0 0.10686458510726413 0.016508406432603265 0.0
264 2 0.0008873199171704506 10.71385142492699 0.0 -0.08270821283439374 -0.02167123376818409 0.0
265 1 10.619824800859956 18.90214631422339 0.0 0.057923091487768086 0.2201833403759678 0.0
266 2 15.330593249837403 13.664060686272578 0.0 0.044608859134563444 0.023453464922315412 0.0
267 2 16.575059528741253 13.536218343174419 0.0 0.013124657252398302 0.011939207794022511 0.0
268 1 1.9513274867409414 11.170296900099475 0.0 -0.05647568684063814 0.05477997864712878 0.0
269 2 18.53086652405501 17.912636469174082 0.0 -0.012868911181278945 -0.06430866482419062 0.0
270 2 3.9126001561077866 6.548525459119467 0.0 -0.068611024983017 0.010808703448317353 0.0
271 2 11.152741325785547 15.847542896409957 0.0 0.04901982879253314 0.05018294726681622 0.0
272 1 5.830253934488444 14.818805413979275 0.0 -0.05660090589069672 -0.005609585839152232 0.0
273 2 14.231169392160671 9.356437137908433 0.0 -0.019502829932595795 0.036583862856471805 0.0
274 2 2.7578423328050072 1.2937291485431286 0.0 -0.027515894396474835 -0.026616859520487802 0.0
275 1 1.4176028380633177 6.540287191405901 0.0 0.04476910947756638 0.018798627361381735 0.0
276 1 1.4140553397982862 3.268055790912428 0.0 -0.0924066197755548 -0.008035638957584097 0.0
277 1 17.52585558199388 5.947042512610353 0.0 -0.1142815768645622 0.08379430163603022 0.0
278 2 0.01678667422846508 17.5093531198385 0.0 -0.04265358111466118 -0.012013652560701842 0.0
279 1 11.613180994568957 11.91867731141337 0.0 -0.07463384132127529 -0.040067893518886975 0.0
280 2 11.081110115212484 12.90901703056323 0.0 -0.12921617040265898 -0.02122601592060126 0.0
281 2 9.110225597428135 9.155895933561887 0.0 -0.023718226303846346 0.036247940458628745 0.0
282 1 17.76938515467209 18.751662819335074 0.0 0.1106480989253068 -0.03109132168735124 0.0
283 2 7.987029967545391 11.434561464876051 0.0 0.0361241886806596 -0.028242939269796506 0.0
284 2 11.161804829526428 5.595473541962456 0.0 0.017785222752659282 0.05688882549577232 0.0
285 2 17.142939868910787 12.32759590704756 0.0 0.0412980722736861 -0.009016467930564907 0.0
286 2 5.382811521770731 15.87531416163013 0.0 -0.011686073853815496 -0.04604118725159006 0.0
287 1 1.2398795337010355 11.144399948537721 0.0 -0.012199084157750015 -0.03024786808288336 0.0
288 1 8.616407998456978 13.44009832977661 0.0 -0.053774774501924916 -0.05616066495842985 0.0
289 1 3.9017180775098828 5.439145144497044 0.0 0.09850115327198294 0.08868478278443614 0.0
290 1 14.272349496505779 12.276017092355486 0.0 -0.13332043665754 -0.001210935514320341 0.0
291 1 2.14924313821565 10.00315057358682 0.0 0.010304074878383708 0.07342467865022442 0.0
292 2 19.59822291546427 5.748221201186613 0.0 -0.00892463030613007 -0.04886232864700292 0.0
293 1 15.441863600880104 2.8441101624627247 0.0 0.03859078987533141 -0.10182242778046255 0.0
294 1 14.63192642321591 19.212264606024533 0.0 0.039907453924376404 0.06328783383085815 0.0
295 1 17.873098708257555 5.263204151750082 0.0 0.05731941117541707 -0.05848145002573445 0.0
296 1 10.452535212225703 13.862069957378699 0.0 0.06525416360126904 -0.06524909005385811 0.0
297 1 2.349714480282572 17.20306164737883 0.0 0.0845817461491277 0.009341358927543427 0.0
298 1 15.723298861153042 10.114572719743787 0.0 0.03885912232823663 -0.18624067240983358 0.0
299 2 0.4486890890738271 9.573729753080338 0.0 0.043341898895202284 0.011932154866171966 0.0
300 2 13.383544043076123 14.374904343437539 0.0 0.07775440333309229 -0.037360714703797815 0.0
301 2 1.9815680080114506 4.943468941145182 0.0 -0.02445769225932021 -0.0029859821856580418 0.0
302 2 2.8871786838342732 5.815361657434279 0.0 -0.024202835792476014 -0.07045416824869417 0.0
303 2 6.936924219826213 9.598726852356226 0.0 -0.009599463608085496 -0.02095102793461929 0.0
304 2 2.882589080681633 11.734701978275005 0.0 0.05204943625110912 -0.04041753355182873 0.0
305 2 15.912935228851358 12.458790864944527 0.0 -0.0171057920653583 -0.03147133692458807 0.0
306 2 11.533075950540878 4.325487255433587 0.0 0.01718824074517579 -0.011297181059003765 0.0
307 2 9.714157536133062 7.164700300202922 0.0 0.05460133180658329 0.022817647839256182 0.0
308 1 1.261676477794285 2.014792822544147 0.0 0.08476487326854519 0.14876997363385858 0.0
309 2 5.886833356931079 1.02928244390926 0.0 -0.024061398035531013 -0.06187630932875514 0.0
310 1 17.453495425245585 18.152685878064133 0.0 0.028901223401120942 -0.06735516103896115 0.0
311 2 15.230758337273649 17.205674347426793 0.0 0.017451867843972454 -0.016081473883768196 0.0
312 1 18.2084512333041 5.8491884903207865 0.0 -0.022887896724520195 0.03852483323025022 0.0
313 1 1.9578496223795887 16.639882526979193 0.0 0.09541607493489378 0.08869485012875117 0.0
314 2 1.314864914819682 17.528339040420928 0.0 0.030523136697785808 -0.09407613828841872 0.0
315 2 6.515626936872369 19.71787304697884 0.0 0.06438599556548423 0.019118343550376973 0.0
316 1 9.085403376344724 15.648479759219475 0.0 -0.034004260206377285 -0.0876081839249109 0.0
317 2 19.314887763814806 0.43370589950411564 0.0 0.04091976008625162 0.08125407496936898 0.0
318 2 13.852487420669743 2.243202443639362 0.0 0.00971148803142379 0.0593584929200245 0.0
319 1 10.946584126102763 11.767318447452478 0.0 0.043668146722307934 -0.10594328745988252 0.0
320 2 9.14160036340192 5.026182564059768 0.0 -0.07706682327303427 -0.004205004882725773 0.0
321 1 17.09210732355241 18.733497463769055 0.0 -0.0475050704368113 -0.15258231208309447 0.0
322 1 11.234155167931725 19.166882686808908 0.0 0.020575032520363704 0.038186070075010764 0.0
323 1 19.23829044402497 2.8037790758085763 0.0 -0.21815232556358843 0.07685043469450815 0.0