ITEM: TIMESTEP
0
ITEM: NUMBER OF ATOMS
400
ITEM: BOX BOUNDS xy xz yz pp pp pp
0.0 19.7609 0.0
0.0 19.7609 0.0
0.0 10.0 0.0
ITEM: ATOMS id type x y z vx vy vz
1 1 8.455245774450214 12.540733582582705 0.0 -0.18404255531550742 0.00472947129727651 0.0
2 2 17.272702233834824 12.146033588574241 0.0 0.007969896732414028 -0.05033799046556199 0.0
3 1 13.57193971314505 11.21963730329699 0.0 -0.019836848156460554 -0.0350015024095144 0.0
4 1 1.5939547518475683 10.940097051793297 0.0 -0.024135479688674497 0.05881728898111396 0.0
5 1 0.8808295478266441 14.12029932408037 0.0 0.032624269812058855 -0.09528190996807027 0.0
6 2 1.9398798851883807 5.865621082456833 0.0 -0.07093536257917957 -0.09906364961464867 0.0
7 2 3.124850009219404 6.712726906544103 0.0 -0.02767669506538732 -0.008744303833286619 0.0
8 1 13.912817362022327 1.905182861866977 0.0 -0.08081369370216927 0.00964235821236757 0.0
9 2 12.494634853642257 8.443329692731393 0.0 -0.07886653278599888 -0.04208001213899825 0.0
10 1 6.41124594699092 14.146848419442781 0.0 -0.022523571359789937 0.017621625669157658 0.0
11 2 17.91112044206263 18.416116320931575 0.0 -0.05479683691489287 -0.033971894503210615 0.0
12 1 1.761877714634056 12.258611972248822 0.0 -0.016572406047496963 -0.06437848415671706 0.0
13 2 16.02939116835023 3.921523572686134 0.0 -0.043906142190078 -0.08164872657691372 0.0
14 2 11.828146142471683 9.497115116631647 0.0 -0.06704951142120832 0.02435103934664743 0.0
15 2 16.135330170680795 8.705383589416433 0.0 -0.007124257235660575 -0.02630924900457344 0.0
16 1 5.246471250451203 15.966089067120198 0.0 0.12486643723328172 -0.07061979118320653 0.0
17 1 8.572367506653727 5.244538261630983 0.0 0.06189563440985237 -0.02754975433900286 0.0
18 2 13.447013269301543 17.8437637263454 0.0 0.00901941234302335 0.09429960934509497 0.0
19 1 5.423846643185674 13.208063997338737 0.0 -0.007907501519194724 0.028286866575523022 0.0
20 1 1.8701626300498033 11.577707114502454 0.0 -0.04796927518074033 0.11169833448292561 0.0
21 1 13.528764762552338 10.554225038979684 0.0 -0.026657208152825008 0.10362503615729386 0.0
22 2 7.3178360782477165 15.558369442341789 0.0 0.12630212076690814 0.11585151145689257 0.0
23 1 11.718976187568295 14.061431823104847 0.0 0.20152058063050518 -0.0967480653454538 0.0
24 1 7.223441254528992 7.668715100405071 0.0 -0.021125681482318706 0.12589438968034677 0.0
25 1 5.699454104685893 11.827779493458754 0.0 0.13956230342344605 0.13439848880956545 0.0
26 1 12.756841832437834 2.38122189006697 0.0 -0.08733410881429451 0.13547103443606665 0.0
27 1 14.020586194058053 5.208937715260423 0.0 -0.1217237276015318 0.00738921225102904 0.0
28 1 6.98446160737652 7.0231886163500965 0.0 0.05324560608905143 -0.03549778668145597 0.0
29 2 9.031746413827694 11.528501121088789 0.0 -0.03594070193188838 -0.030019372853808998 0.0
30 1 10.142300524081062 11.770343437754255 0.0 0.06945941423818108 0.05989816381821205 0.0
31 1 14.973766548579993 12.722346381387881 0.0 -0.10168720090724659 -0.03741126906697092 0.0
32 2 12.367312249652455 10.62764860155056 0.0 -0.08391195465800619 0.009458643211657508 0.0
33 1 2.4348808012528487 15.614190501007753 0.0 0.021308375613820634 -0.007307646331865425 0.0
34 1 6.480817149136766 11.646283767202126 0.0 -0.08668925615070489 0.11154551481525105 0.0
35 1 11.154462547879346 17.108912918193397 0.0 0.16118974983939083 -0.08336970362562887 0.0
36 2 9.618541931625682 5.000253932438903 0.0 -0.022005035923645267 -0.028255396664800675 0.0
37 1 13.261750951852472 1.9341869662772244 0.0 -0.017146101054325732 0.07053027323443593 0.0
38 2 5.943917473929701 6.604593445775343 0.0 0.05018155578932634 -0.014193131417066858 0.0
39 2 10.142951813799714 10.694303460611918 0.0 -0.05914431271264227 -0.06616991478086028 0.0
40 1 2.1444222931939447 0.6208618878845381 0.0 -0.000925273689569529 -0.0036965413495572987 0.0
41 2 13.114310499564398 9.530550424347235 0.0 0.06852013719581414 -0.03048682651302115 0.0
42 1 8.441457821737227 0.045938947411031085 0.0 0.23458101163553927 -0.017136915250453157 0.0
43 1 10.680157893081104 4.679683935076178 0.0 -0.1163177756235844 0.11330499497171924 0.0
44 2 17.706230383702035 2.2358447935733916 0.0 -0.0029760210243218992 -0.07584513871789439 0.0
45 1 6.4842508942961805 16.30374158086028 0.0 0.06211524714012209 -0.02652485495532881 0.0
46 1 11.414335625605117 2.236910701728903 0.0 0.1084374290329699 0.06071691282976975 0.0
47 2 0.6169120462280053 10.422115301712461 0.0 -0.044730436267359966 0.00724238256326085 0.0
48 2 5.284973180912557 0.9012189044003709 0.0 0.04314711625436696 0.010396330697372537 0.0
49 1 9.038480939367979 10.41443838898775 0.0 0.07137402412264658 -0.027645532230593822 0.0
50 2 9.948033321982777 0.9345269063449275 0.0 -0.06055593383720425 -0.00580376101745097 0.0
51 1 17.087102651219816 13.24343340998995 0.0 -0.10837907549368254 0.001301049672471742 0.0
52 2 1.5782800658504206 19.459762477193888 0.0 -0.03291558933038951 -0.08751383786822069 0.0
53 2 2.838854955161791 12.0616348649164 0.0 -0.06964815175545469 -0.01915980370305449 0.0
54 1 9.10476078153095 14.345020644622126 0.0 0.04108071759594295 0.028458910840309503 0.0
55 1 2.4266363262671686 9.782895759948168 0.0 0.14529091051656748 0.024819646364509847 0.0
56 1 2.6131708989061626 19.22306176809757 0.0 0.19392888996508623 -0.08772853726154814 0.0
57 1 17.344890024671564 9.746759971207837 0.0 -0.02673922078390707 0.08149547766825319 0.0
58 2 7.495985975246823 17.663714745771916 0.0 0.05156379888386094 -0.001851733961222868 0.0
59 2 3.1042747726715465 13.349584112256561 0.0 0.026089127649538486 0.011377017464894041 0.0
60 1 6.977688080629073 14.538685517091288 0.0 -0.07141175480851969 -0.12260876968092638 0.0
61 2 9.482450005122006 8.702381656009242 0.0 -0.005649705836254802 0.019681985977605447 0.0
62 1 6.065452670642131 12.958134894771066 0.0 -0.016142796113185535 -0.009937558376705392 0.0
63 1 4.430912566904268 12.355585098533657 0.0 -0.06611888470262095 -0.04609403407966777 0.0
64 2 9.779105903599214 15.196340016566841 0.0 0.08809872994209747 -0.037826421312087424 0.0
65 1 10.750367807431573 2.057038438717518 0.0 0.005426745819345705 -0.07895390821548974 0.0
66 2 6.108719101857955 15.27104222041198 0.0 0.0075790763251252285 0.005327166910443218 0.0
67 1 1.7579053138608205 3.386550266031677 0.0 -0.03703157481093161 0.017311412716118156 0.0
68 2 8.027476948594872 14.150582664839584 0.0 -0.0010471428341721014 0.05256059510972404 0.0
69 2 19.469707147757155 7.132659688230212 0.0 -0.016337725307763132 -0.022900020862666303 0.0
70 1 2.0960432202669166 2.8242796968852377 0.0 -0.02079671681793549 -0.014494362146138449 0.0
71 1 10.685411694820322 0.13760206846474493 0.0 -0.07255614191670735 -0.09513227366298223 0.0
72 1 7.027295155621748 6.351498636436542 0.0 0.00975445097033527 -0.045124501228875596 0.0
73 1 3.78615504099138 19.096333779745997 0.0 -0.019920782294027137 0.05574021249857618 0.0
74 1 3.1796412985687974 9.861651394270163 0.0 0.006681695925045138 0.030885660401233146 0.0
75 2 12.318941580257464 14.973988785607746 0.0 -0.008101829120161818 -0.05953848151691212 0.0
76 1 9.086228882570698 0.2694230114501965 0.0 -0.10984688180278034 -0.03782081604527224 0.0
77 1 12.358354440098532 11.77799334766624 0.0 -0.06683732151407801 0.014489356289936308 0.0
78 2 14.562614761006893 19.72053017629752 0.0 -0.037142867457382794 0.07796074456214476 0.0
79 1 9.717551443864243 3.875124111591631 0.0 -0.007980673886541853 0.060195002277541446 0.0
80 2 16.923433208653613 19.376469123846327 0.0 0.012163456668413996 0.05069064170672608 0.0
81 1 0.701493174886792 15.863222114401658 0.0 0.0058823954259720245 -0.04343026304162258 0.0
82 2 16.49947358512201 2.5306195531732603 0.0 0.06334428781700834 -0.02403031802899026 0.0
83 1 16.586475301633836 15.759706600647034 0.0 0.0893917319737075 -0.1543280373459367 0.0
84 2 1.8617867454605534 7.1138149168941585 0.0 -0.03703981600039249 -0.019383154407631664 0.0
85 1 19.354839228684973 1.8039525653460815 0.0 0.059567665656464666 0.08414362834224202 0.0
86 1 10.613701900778896 16.696207202650072 0.0 -0.08887829191351038 0.11756012021226342 0.0
87 1 12.286644749303955 19.494672045340433 0.0 -0.04666469341297729 -0.00050114396622723 0.0
88 2 15.87488274795167 10.516704899648596 0.0 -0.0481738253835224 0.025114521006132512 0.0
89 1 19.591613211850564 11.251118753595515 0.0 0.022689100750662015 0.07476637177374837 0.0
90 2 12.574057684335195 3.4988994795323327 0.0 -0.007924574283471026 -0.02686385566076289 0.0
91 2 7.5127479580209595 2.014127211845418 0.0 0.04721411778780404 0.0281371229203555 0.0
92 1 2.950007331891551 16.350662222539604 0.0 -0.019698657623150106 0.07303429760944921 0.0
93 1 11.218739088916028 10.403055271220765 0.0 0.053509175757556114 0.03926340294465074 0.0
94 1 7.2476983719232795 13.203591834807073 0.0 -0.06586554328231835 -0.021329303981772338 0.0
95 2 14.66734894341111 11.01633031021427 0.0 0.10075124403698876 -0.0045303924269330205 0.0
96 2 13.611311138760996 0.8475538743640254 0.0 -0.04729324429672188 0.004676806246680957 0.0
97 1 4.2809822058197415 18.0567396740268 0.0 -0.01589817001026661 0.03685515401314233 0.0
98 2 10.089510723250426 17.687737852474733 0.0 -0.04684226360275114 -0.051195013764265905 0.0
99 1 12.073438100580413 2.4461874055382324 0.0 0.0423473112560556 0.040090536857730195 0.0
100 1 16.489492106112866 13.648056522442795 0.0 -0.08982983305895427 0.014168202987679318 0.0
101 1 17.381802648937523 7.097220667963642 0.0 -0.04180289116276579 -0.002001827260380722 0.0
102 1 15.067051784282775 5.877876092909579 0.0 0.026158926055142882 -0.08532941176538139 0.0
103 1 1.8057404805439612 9.557090159252235 0.0 0.03232763815214949 -0.008931971912724771 0.0
104 2 3.153930386344803 1.037691078789445 0.0 0.013826423196231648 -0.046481723577312534 0.0
105 1 9.438365413604622 9.826120548516728 0.0 0.030181003408540664 -0.06431039315194954 0.0
106 1 14.391006088145053 12.314085143448827 0.0 0.06157553554142102 -0.054992344662501476 0.0
107 1 10.894260233337246 19.26793373364703 0.0 0.009524591846141342 -0.0325213839664479 0.0
108 2 6.49670209618722 4.042296690905838 0.0 0.03343566210912507 -0.012643392330547872 0.0
109 1 19.717688214157945 12.531733043484426 0.0 0.03837904066012802 0.09052509169479436 0.0
110 2 5.221337806597686 19.407146087330553 0.0 0.025203242051468497 0.06496502263491631 0.0
111 1 11.207335577916533 13.658396327016696 0.0 0.0011397024016428909 0.12062005370539236 0.0
112 1 5.569916464266853 12.519177671075855 0.0 -0.012054284990632137 -0.04979510280984877 0.0
113 1 13.809913360095615 5.85698282819679 0.0 0.11573332844674408 0.07243992228946934 0.0
114 1 6.712445787021465 12.766113697932706 0.0 -0.026980163274366628 -0.00906818409126052 0.0
115 1 2.4400392275081595 3.377246025428284 0.0 -0.031067721609649726 -0.11617977081336063 0.0
116 2 5.404928042612076 2.1238909224026017 0.0 -0.055366057597748444 -0.013134567172810191 0.0
117 2 15.039010781686068 4.741283374386273 0.0 0.0057533914039282095 -0.010835227464947807 0.0
118 1 12.98258719372261 11.519991893232204 0.0 0.018339305241771835 0.14139215513415546 0.0
119 1 4.357571697944952 18.73771601078008 0.0 0.06900804085660535 -0.059672047567776706 0.0
120 2 3.8064198109467453 7.855671871281727 0.0 0.11355606713688615 -0.0842474846784498 0.0
121 2 10.149227863790511 13.916908332574483 0.0 -0.11736037108245925 -0.03161347855344311 0.0
122 1 17.12986175366254 5.805070281359541 0.0 0.045336692646045715 0.01813159571795218 0.0
123 2 15.47680542945307 17.749738933135937 0.0 0.03976541108758207 0.08240151971304147 0.0
124 2 3.0873606565649006 5.417293865350839 0.0 -0.0254334762400517 -0.03922453599070053 0.0
125 2 11.27307447514533 11.511498517829827 0.0 -0.07030523341901766 0.06723438195013907 0.0
126 2 17.039133513784282 4.724945218142408 0.0 0.03814526749531829 -0.04709562706565798 0.0
127 2 0.17511418555289293 14.931866211677747 0.0 0.03263974376634829 -0.025471971779044766 0.0
128 2 1.8219423207323409 8.42550669775455 0.0 0.05542078778083133 0.04635227663305892 0.0
129 2 9.230508052370006 7.202927434856022 0.0 -0.05740920335419734 0.03867159387676243 0.0
130 1 0.9566402281570904 13.409726585020053 0.0 0.037750134759523726 0.010921034154427555 0.0
131 1 1.3553817156170236 12.815026904860586 0.0 0.018811020415684183 -0.01825173926439065 0.0
132 1 7.485216998101586 5.860065632632825 0.0 -0.03920103618639189 0.10590124615207973 0.0
133 2 2.6866094083605914 10.833708848086417 0.0 -0.03216469237546125 0.005192178896900725 0.0
134 2 11.176371032343216 1.1055398076405893 0.0 -0.04664512533446367 0.03943797588876534 0.0
135 2 5.665908344679975 9.501543882523976 0.0 0.0012204514526291258 0.07202812566939902 0.0
136 1 5.0986119202629245 11.45558649457109 0.0 -0.06382484023033996 0.01646358494759724 0.0
137 2 4.427695383192681 4.010104886337731 0.0 0.04645644286126624 -0.1560179933369858 0.0
138 1 3.12277536787261 2.120241445025418 0.0 -0.1658703727390181 -0.06371094165633687 0.0
139 1 10.101495035666748 19.560559721706458 0.0 0.0733112522632961 -0.11422197351146961 0.0
140 2 0.8988699545412052 5.166472146068362 0.0 -0.05981564731750675 -0.07619013650086923 0.0
141 2 14.115048408412164 13.414568157291688 0.0 0.016873570377507436 0.02100730091015898 0.0
142 2 19.144902870941177 18.559802844963617 0.0 0.08359932215262346 0.017651768608869165 0.0
143 1 0.26683588537621444 1.7456976212451065 0.0 0.08366951990865386 -0.07476385846756524 0.0
144 1 4.9958806459674685 15.308264676003146 0.0 0.035395040007981576 0.0012666845843822129 0.0
145 1 7.924027082929745 13.025245148775005 0.0 0.0178909345210637 0.08855946103442296 0.0
146 2 6.447506301139519 1.4044848055345556 0.0 -0.09074444068113054 0.0007228005619202873 0.0
147 2 12.757588129851621 13.721687898013224 0.0 0.07812220035790696 -0.00723779082312318 0.0
148 2 14.307024019800153 15.581796784403048 0.0 -0.0796884587079452 0.05414616339379376 0.0
149 2 2.883097346090089 14.61830678050224 0.0 -0.0087095410911929 -0.06869071051815634 0.0
150 2 0.7844420897279034 9.120489293459748 0.0 0.07393314806426346 -0.04553167100627366 0.0
151 2 15.704848691096219 18.983414427392233 0.0 0.015758832458003177 0.07309712335350724 0.0
152 1 9.424633324693922 3.284845636169627 0.0 0.18443909548434562 -0.12840022479558033 0.0
153 2 17.581653929400815 17.12264036635108 0.0 0.02310395401932426 -0.07153625833814638 0.0
154 2 19.66946987657104 2.8854525505198714 0.0 0.08800309805947076 -0.04516495802798141 0.0
155 1 7.406528465118307 8.979480096101224 0.0 0.05565019095322804 0.02503460442109254 0.0
156 1 17.116641524235614 9.126714165956987 0.0 -0.020526799103128678 -0.04484438953902281 0.0
157 2 13.368110243537501 19.216503604588823 0.0 0.11356936057004167 0.07931777150481968 0.0
158 2 10.519086538755156 9.5030926452802 0.0 0.009368790949865083 0.008564624962468138 0.0
159 1 5.2655435455957 13.867040626298095 0.0 -0.09597095889996811 -0.03197835280042924 0.0
160 1 4.135430748776373 13.705890269050487 0.0 0.09804458797359983 -0.03523686763102247 0.0
161 2 19.49039107745756 5.776382350955623 0.0 -0.07673330124474344 0.08796817063173364 0.0
162 1 2.2671746996910724 16.26986938000167 0.0 0.1370102100156951 0.02865984700801561 0.0
163 2 3.218792271116403 4.1336179803661395 0.0 -0.010283597212809584 0.06582982728366035 0.0
164 1 11.971405637939649 0.3227578019644676 0.0 -0.04985629659195099 0.037013968223730424 0.0
165 2 6.258243228213895 17.37049915400192 0.0 -0.015201141281054976 -0.051250036432366045 0.0
166 1 15.610281889276424 11.612331416992841 0.0 -0.10582419460518382 -0.0387017403753919 0.0
167 2 13.210309297133826 12.572384344250672 0.0 -0.003939168766971189 0.06566435761236604 0.0
168 1 12.657581051956472 0.2984325472910191 0.0 0.060434943238675105 0.01111680052986583 0.0
169 1 4.94257626581436 3.0919900729950798 0.0 -0.014895638736951553 0.01715814556303753 0.0
170 1 3.1071412213203993 15.686941062710384 0.0 -0.03449164386556452 0.0667857936066575 0.0
171 1 1.7294375613808488 10.237108977637996 0.0 0.024398590020097716 -0.013081320853756864 0.0
172 1 2.0774478213260186 12.839035611806267 0.0 0.01887034436730027 -0.053276070284121804 0.0
173 2 7.55912201962585 0.6963253834656309 0.0 0.04354146245294976 -0.05271721256483018 0.0
174 1 5.759551919921576 14.288169170883055 0.0 -0.20443322313889029 -0.04230566273157886 0.0
175 2 5.913968032660143 10.725214710525872 0.0 0.05442517010306806 0.05424575794068787 0.0
176 2 15.771566168834285 0.531317595494111 0.0 0.07965991867969115 0.07317495868797613 0.0
177 1 15.079846697223585 12.064576716197326 0.0 0.09085126184592568 -0.06582155638464898 0.0
178 1 16.569471438323696 1.3821225070355247 0.0 0.002259639064333186 -0.08193867992158956 0.0
179 2 8.268936616315395 8.172622417755479 0.0 0.10298506945049789 -0.01072975923431419 0.0
180 2 19.40040302946442 8.39518599042273 0.0 -0.035494376579092934 -0.02549640042698771 0.0
181 1 8.062246027580322 19.225556321172487 0.0 0.08613422675945752 0.08290431748602362 0.0
182 2 6.443168027173957 5.407517394057197 0.0 0.02481053654244305 -0.003650272893055288 0.0
183 1 7.2034199440402915 8.351104647397152 0.0 0.0879688943957379 0.09590642730739153 0.0
184 1 18.88067879263442 15.190691721868879 0.0 -0.14583632061596127 0.06503912441547442 0.0
185 1 6.594494240982129 8.131696619988846 0.0 -0.037478758689276824 -0.013569371467522252 0.0
186 1 3.2231605729018047 19.567956541448773 0.0 0.0016132979996184248 -0.10787196347935724 0.0
187 1 6.546353533523887 13.411908254463917 0.0 -0.012023193629431597 0.04177768446843908 0.0
188 1 7.36862500509132 19.38457548715187 0.0 -0.0406343988487103 -0.000305977361228432 0.0
189 2 12.355037204061325 1.3663185030602412 0.0 0.009713541508402507 -0.0256482805624551 0.0
190 1 6.936361702218355 11.083971565090224 0.0 -0.015937723810869425 -0.027887240091505498 0.0
191 2 13.162594545292626 7.396263069216251 0.0 0.13467070673534576 0.06392444097754116 0.0
192 2 5.344445236464369 18.19302568584546 0.0 0.0008857868127108441 -0.031860876617667455 0.0
193 1 11.495354576990968 3.653277561395423 0.0 0.03136252534617496 0.003371560845239318 0.0
194 1 6.227623819826044 12.277712187199516 0.0 0.00873121987405773 0.034430583118916655 0.0
195 2 10.496680622621325 7.377387032780573 0.0 -0.11620781017920928 0.016562407062731717 0.0
196 1 4.186763248917307 6.369567700122101 0.0 -0.03054933154352486 -0.07683042791907368 0.0
197 1 18.408707528083227 15.656277329767992 0.0 0.18737535035772304 -0.026331344617266116 0.0
198 2 7.508858516009403 12.018245447900096 0.0 -0.040625773062495124 0.1506898746190188 0.0
199 2 14.920287425542211 14.418850509937325 0.0 0.05390544270162686 0.06053977672478206 0.0
200 1 18.680362508443558 4.295806953167272 0.0 -0.031489171035394156 0.08021636732707522 0.0
201 2 18.330355651065535 13.61669959871062 0.0 -0.016220502292740115 -0.039585031305340974 0.0
202 2 13.981808711380799 4.124603448692825 0.0 -0.0013266512021637067 0.0016048793732456352 0.0
203 2 8.6548727076742 1.2857246610275013 0.0 0.01640908162489734 0.07715564058401538 0.0
204 1 10.322154581360849 18.86900553269814 0.0 0.1732782021970725 -0.13170085579035198 0.0
205 2 15.177648760851374 7.880922366665415 0.0 -0.0004509985390429529 0.0029632460069272657 0.0
206 1 18.933281833051062 14.51340828951743 0.0 0.08714332082132642 0.019839175782394598 0.0
207 1 1.212842900583415 15.402206626219042 0.0 -0.13816554582456997 -0.10128818271121817 0.0
208 2 18.18907291345542 7.819459421050164 0.0 0.036991047301235445 0.030838531099525286 0.0
209 1 13.945059870422606 11.802325453497945 0.0 0.029682001558253703 0.023218342924811473 0.0
210 1 0.9341830434732419 1.2857704351233372 0.0 0.0329876121079892 -0.00472702763895991 0.0
211 1 10.503701386167842 16.005171880700885 0.0 0.008390625740728738 -0.09235706808096626 0.0
212 1 3.9817731259619484 14.352854948602909 0.0 -0.0612354243118589 -0.08121849269496058 0.0
213 2 12.19895533567925 6.140229265760565 0.0 -0.009919150048106637 -0.052464827449071626 0.0
214 1 11.341023005431243 0.03617802500264722 0.0 0.041862297516018554 0.06966626049355192 0.0
215 1 18.104212947382 11.391162177622839 0.0 0.04486183593872005 0.05368528542024236 0.0
216 1 18.34937301783526 16.340223833843154 0.0 -0.017647983377553134 0.014835306294133767 0.0
217 1 10.971745851784426 4.078917221297424 0.0 -0.03377634163447067 -0.0055802493493202375 0.0
218 1 11.620027165760797 2.936826047886614 0.0 -0.04708214201943303 -0.09627190462986512 0.0
219 1 2.730959666999893 7.768775040992296 0.0 -0.02277285842771889 -0.009374416670993747 0.0
220 1 18.331449965661214 14.785953413862257 0.0 -0.07488443988489098 0.042680176624635247 0.0
221 2 18.394410799885836 19.64181576555121 0.0 -0.07674888259559567 0.027444169650630144 0.0
222 2 10.536603610333074 3.0923342636122313 0.0 -0.024075975913517993 -0.020145845711541543 0.0
223 1 4.520997267065448 9.402744705698522 0.0 -0.006766252743901281 0.13006861312730833 0.0
224 1 1.497270601883186 0.8123716645593667 0.0 -0.11270123968025174 0.020172968236117028 0.0
225 1 14.502599203716555 2.229293055456158 0.0 0.10202958974282787 -0.02874789449000625 0.0
226 1 15.032577364983643 8.958223624259466 0.0 0.0043400659303419985 -0.08078476922345929 0.0
227 1 17.49355497025755 0.5704485674891817 0.0 -0.01342260055655229 -0.11130222598430521 0.0
228 1 19.276359695275914 10.695995120830787 0.0 0.03710037189807723 -0.14342047450681417 0.0
229 2 11.196000411801942 18.2061530749665 0.0 0.006614220375680557 -0.023096669007170036 0.0
230 1 14.449458081325005 5.691476532568438 0.0 0.047168077591387934 -0.001736806359572181 0.0
231 1 16.831350503951807 0.7250358728063849 0.0 0.02882371131299471 -0.00018359780591709288 0.0
232 2 11.743539464447574 4.836841220181452 0.0 -0.001569750689940173 -0.04252867592505801 0.0
233 2 16.68580649517796 18.089300407255447 0.0 0.06384755511166285 -0.06142824540991565 0.0
234 1 4.653611125366625 14.157737104980205 0.0 -0.040368212959994695 0.03960744670248042 0.0
235 1 4.512064240692511 14.831198787562883 0.0 -0.008858109066505335 0.03635906984842375 0.0
236 1 14.803273659028033 2.837934956926217 0.0 0.019883732078926797 -0.06657639461256401 0.0
237 2 18.81364993981065 17.337941580611435 0.0 -0.04307270432135707 0.018258097194756854 0.0
238 2 14.331472652584406 9.806099937977876 0.0 -0.0072429183401752 0.014524408344199127 0.0
239 1 12.74044577187767 5.181165085051896 0.0 0.005473536745619326 0.10357134723403828 0.0
240 1 17.85063123832821 15.28096108910856 0.0 -0.055755951960000785 0.005308480003719763 0.0
241 1 4.034399532471788 8.965459529876759 0.0 -0.092511181054554 -0.12545976549728052 0.0
242 2 1.081351058864363 2.4614434605509317 0.0 -0.037603042503843005 0.10566360180638724 0.0
243 1 1.7834347748325783 15.784765417153858 0.0 -0.06318080658782343 -0.010487745481146237 0.0
244 2 4.139582305892995 16.053480559844882 0.0 0.0026861733362404847 0.03523581451853608 0.0
245 2 16.07870799531557 12.628989148395664 0.0 -0.013809621073735881 0.04954001720448723 0.0
246 2 8.542374974405828 2.6641209430334714 0.0 -0.07603632565195266 0.0002337745131565816 0.0
247 1 10.299460802215368 4.152677747878895 0.0 0.2586910383218358 -0.06962751158296772 0.0
248 2 1.9392884824977603 13.89336258411481 0.0 -0.01226332347422172 0.009067963451962917 0.0
249 2 6.907806560445283 9.943320636570622 0.0 0.046454443286710057 0.039895600311539936 0.0
250 2 1.9845348533342888 4.4671729257082795 0.0 -0.06727882290439918 0.032723522157506804 0.0
251 1 1.0765125095925294 18.464013813354548 0.0 -0.07538817150357512 -0.04411575272240429 0.0
252 2 8.042971709093793 6.854513196150711 0.0 0.058266432888490906 -0.006972150726072896 0.0
253 1 16.67418348109884 9.69413968258346 0.0 -0.04417308447298704 0.023934299184884725 0.0
254 1 14.785528422755005 1.0074091493484822 0.0 -0.052560529612779135 0.05780518644038566 0.0
255 1 11.149673811449665 5.796917110833806 0.0 0.015568069307839794 0.06447516770270414 0.0
256 2 18.274601798416533 10.318101316320206 0.0 -0.05161195746648131 -0.06574656554030898 0.0
257 1 18.888151724104514 11.303664649817593 0.0 -0.03504076766013624 0.06481431035280855 0.0
258 2 9.49502496404067 16.48692737757723 0.0 -0.06268867421263434 -0.07139231926264078 0.0
259 2 2.9636817515142453 8.82638764542316 0.0 -0.04673500634851009 0.010704633924449196 0.0
260 2 14.496869465414619 18.500224006448818 0.0 -0.0691552247373258 -0.0056546059048147015 0.0
261 2 6.446516375457452 2.7849897924115212 0.0 -0.02327981951581787 -0.0013267017922544253 0.0
262 1 17.038249186226025 7.7465689662932915 0.0 -0.06949273962447941 -0.014300252032834634 0.0
263 2 18.399795325039843 1.1783118483935637 0.0 -0.0939336349351482 -0.00662547493709761 0.0
264 2 7.57241528214035 4.764956038185024 0.0 0.03551610275313368 -0.0011128798471039404 0.0
265 1 17.26008346747899 1.2319536588774136 0.0 0.04371428238243385 0.00798650213687382 0.0
266 2 18.15353052634308 5.343508243526785 0.0 0.03224543790919366 -0.004487279888037136 0.0
267 2 8.376685630622013 9.488332081493045 0.0 0.039346072447898034 -0.07386939443825508 0.0
268 1 3.6637759752324808 10.32247958351743 0.0 -0.13765945992527354 -0.14084207543711805 0.0
269 2 18.397486843577372 6.562518156186803 0.0 0.034997108257467574 -0.13910546274257282 0.0
270 2 4.9948553142794445 8.438653270399822 0.0 0.06105889167924983 0.004612018666991225 0.0
271 2 8.826705370291625 17.65628408980457 0.0 -0.0066431655608912244 0.009010006581613696 0.0
272 1 8.154096590002622 5.761576253959623 0.0 0.07530692609668872 0.03167523314245577 0.0
273 2 11.196126589806079 8.414683625745495 0.0 -0.043557907225139275 -0.044213795619761125 0.0
274 2 19.37090841548707 9.630076507511 0.0 -0.06521574145609726 -0.05024578896156437 0.0
275 1 4.767064765739676 13.437160648088893 0.0 0.07973745930450121 -0.09714897373951181 0.0
276 1 16.336459581864535 7.642771951055833 0.0 -0.1174603978571376 -0.019082819788903124 0.0
277 1 16.69589933150966 6.362026382772474 0.0 0.10243301582037677 -0.08039498989171082 0.0
278 2 6.503305651545607 18.66380402447189 0.0 0.005980498801845225 0.02841273153028015 0.0
279 1 2.6067369449913036 0.11662714870477793 0.0 -0.020396090551181214 0.024489635412791932 0.0
280 2 7.9829975467226335 10.75387166661624 0.0 0.061233356893203944 -0.04058762910038549 0.0
281 2 9.21503906334509 18.923492891616853 0.0 -0.005458592831465511 0.06421674414298684 0.0
282 1 5.920542827841509 13.635347498873003 0.0 -0.010751380386788018 -0.010476132622844893 0.0
283 2 8.646276379598918 4.114266757656313 0.0 0.1027480265828815 0.04209000916852389 0.0
284 2 4.913513118871447 17.040953707605226 0.0 0.013148231578413192 0.0047774790027986696 0.0
285 2 0.7787684553271025 6.462825234678683 0.0 0.04413820400439642 0.09655314811332276 0.0
286 2 19.5762494573703 0.727099419291529 0.0 -0.048153603034502765 -0.045154229099419005 0.0
287 1 17.80036674253989 15.959093281979413 0.0 -0.09858807055119591 -0.0953922562240753 0.0
288 1 1.3763498430689851 17.86177152143601 0.0 -0.05515168261576704 -0.03370539834781337 0.0
289 1 19.732869039246076 4.582519781733047 0.0 0.14274695481837393 0.060595245993103924 0.0
290 1 5.520650823303085 3.4626330775165366 0.0 0.036064950806999396 -0.01687770537373289 0.0
291 1 9.057026126015923 13.672582970504633 0.0 -0.09798139382773323 0.08620540177427463 0.0
292 2 4.199821176114154 1.7244276801067675 0.0 -0.029908713232215025 -0.07741034348788406 0.0
293 1 10.693341820354062 5.329449478225125 0.0 -0.005317838242904058 -5.882890611217769e-5 0.0
294 1 15.359898852549732 15.437680672082717 0.0 -0.07886356140067569 -0.03759331375715513 0.0
295 1 14.460370933168774 1.5670685707199326 0.0 -0.052568942612787606 -0.05272429029163003 0.0
296 1 8.200032127263887 18.545377761109325 0.0 -0.006195596674722902 0.019928167974720093 0.0
297 1 17.1731687627708 15.42547308145407 0.0 -0.06840502587625925 0.02274506219254598 0.0
298 1 12.685033599745394 16.062189010807778 0.0 -0.0022799113246232726 0.08477547615179416 0.0
299 2 17.345301986539862 14.322563887782449 0.0 -0.05550696356387847 0.04254427534469523 0.0
300 2 12.313709566656637 17.121431366988414 0.0 -0.09388960018250297 -0.022953147037980622 0.0
301 2 6.397985477806399 0.15036212792538373 0.0 0.014295173466263278 0.04757765775594009 0.0
302 2 16.335804082472375 16.83485827346151 0.0 -0.0471860400592926 0.08118763720676758 0.0
303 2 14.383641353109649 6.793420038759692 0.0 -0.10213022528208344 -0.042774246817909915 0.0
304 2 0.7602778867858981 3.846751289847573 0.0 -0.07667845602078002 -0.03622597292487895 0.0
305 2 0.2925872710615679 17.62905671088194 0.0 0.015160906439699097 -0.01158786680583584 0.0
306 2 4.732121914776084 10.431013849199797 0.0 -0.010465521006764074 0.04808717174076844 0.0
307 2 3.9466973646592898 11.39116969297159 0.0 0.07472888442259361 -0.043464517088699056 0.0
308 1 2.4848200944111967 18.551025807315906 0.0 0.046747784269515785 -0.22799219551608607 0.0
309 2 11.94935319679827 12.802999633703658 0.0 0.04013221938286358 0.051218439650973606 0.0
310 1 18.811373045395072 2.1845809892143935 0.0 -0.045047769021824856 0.07012584183112658 0.0
311 2 7.552847160648441 3.419025755792712 0.0 -0.018746016680903543 -0.00515068097981028 0.0
312 1 15.401856600747337 9.53455779293589 0.0 0.020989501875786114 0.01645147622706083 0.0
313 1 18.016246063367625 4.2390426828266365 0.0 0.028077341793009355 0.11880114227584973 0.0
314 2 9.545090095335382 12.699336206398836 0.0 0.06283225806352594 0.037581666603846584 0.0
315 2 2.0869963319168523 1.7330000640296837 0.0 -0.04745702539526523 -0.016710687941537673 0.0
316 1 13.192703796787573 15.614806302430278 0.0 -0.04120371192512445 -0.011657173800656402 0.0
317 2 4.168741894753137 0.3299796612048876 0.0 -0.02973727891308283 -0.03556566934801208 0.0
318 2 13.97914553538743 8.502420680560036 0.0 -0.0359696179575584 0.08086219539977257 0.0
319 1 1.8511206346398603 15.086233238084985 0.0 -0.08599128494060893 0.10204656949301456 0.0
320 2 19.630001748149052 13.635756763188821 0.0 -0.040910445408072524 0.03603245643834118 0.0
321 1 16.71880979102666 7.080964503387033 0.0 0.00414699853412883 -0.03498849663820934 0.0
322 1 15.22622140476684 13.351354311412024 0.0 0.03664248539729693 0.03747977402878724 0.0