ITEM: TIMESTEP
0
ITEM: NUMBER OF ATOMS
400
ITEM: BOX BOUNDS xy xz yz pp pp pp
0.0 19.7609 0.0
0.0 19.7609 0.0
0.0 10.0 0.0
ITEM: ATOMS id type x y z vx vy vz
1 1 16.381375419324495 16.065914836216752 0.0 0.07992736730868122 -0.005930438370873049 0.0
2 2 7.678827495259623 11.106119024341476 0.0 -0.07380703816196967 0.021571093513947356 0.0
3 1 2.0489831239874636 17.402446228206042 0.0 -0.024566810863341743 -0.11492136143828341 0.0
4 1 11.272175515528073 4.90479874869126 0.0 -0.026191712614856977 0.05459480838879129 0.0
5 1 11.656303721543537 12.584058095501872 0.0 -0.028695050532879275 -0.05587774724963857 0.0
6 2 2.120637386092335 15.071266861451546 0.0 0.011344662658047256 -0.04210578612038069 0.0
7 2 8.481790287169382 0.8668480071042891 0.0 0.05295462045010419 0.01111979142564841 0.0
8 1 15.579041599395046 15.298705504241541 0.0 -0.025055242305504623 0.03687715202056769 0.0
9 2 10.44198576610292 5.641800514148522 0.0 0.05174497512474664 -0.08949334446774089 0.0
10 1 19.04703319079524 19.693251023873646 0.0 0.1596318137689538 -0.053155026682180744 0.0
11 2 11.876022403259508 0.2782872984633848 0.0 0.060379471656494633 0.034400631884011386 0.0
12 1 12.216222333192723 9.152255329657338 0.0 -0.13873956310012298 -0.006490258607152855 0.0
13 2 15.847663637641423 4.162666615941348 0.0 -0.011134624095205397 0.07310270214198815 0.0
14 2 12.262165299260728 7.081666170850598 0.0 0.012465874869402958 0.09655632579554875 0.0
15 2 13.483934341398612 3.5382540054004537 0.0 -0.015800758684951618 0.09173122143713804 0.0
16 1 3.933382358556252 11.019165743353803 0.0 -0.006865657680671687 0.03606791118242019 0.0
17 1 0.16205948597329037 18.61467017014175 0.0 0.03466652617462179 -0.07399800661017869 0.0
18 2 10.536716704858316 12.965509009652974 0.0 0.026608286708562204 -0.01651245419175514 0.0
19 1 12.943877108295903 0.5953912024433388 0.0 -0.014259639673942783 -0.04784733356237715 0.0
20 1 5.659624418662124 15.721464010030767 0.0 -0.09149362314189852 -0.029808624389382785 0.0
21 1 6.857073077411592 15.634448875329378 0.0 0.016681359712929448 -0.06180898829733034 0.0
22 2 9.623280996429227 1.3026681593998422 0.0 -0.053369314094967965 0.02119650067657325 0.0
23 1 11.815627244709036 11.20073482228443 0.0 0.029745127071701287 0.15106224260639584 0.0
24 1 13.671563696027233 8.064227350261866 0.0 0.008708981673402566 0.02240165993955183 0.0
25 1 3.4300763031169375 0.04719347567019326 0.0 0.028470964501386906 -0.0013437526702457165 0.0
26 1 15.444014135113067 8.279636576607592 0.0 -0.02387368790341906 -0.019530522152228367 0.0
27 1 6.878164987027557 16.415520832151348 0.0 -0.07583473006523318 -0.1111452944549367 0.0
28 1 8.476642672642726 13.347939579287573 0.0 -0.0006731790410547942 0.14188678415449568 0.0
29 2 12.03605377184632 15.512048249454555 0.0 -0.009520165190060423 -0.004494498538309428 0.0
30 1 9.39113320067653 2.3706805403590843 0.0 -0.14962017212914008 0.038090566712671775 0.0
31 1 6.285906893700751 16.017198040012037 0.0 -0.016247180983822142 0.06248427020114521 0.0
32 2 15.55543328126997 19.647013462631595 0.0 0.0703763849771584 0.04020989979488945 0.0
33 1 12.421095346120154 3.626056349935299 0.0 0.0004295693062636968 0.0016166894474253844 0.0
34 1 19.666795000444026 19.332171632744643 0.0 0.043833924574673305 0.010886969766674923 0.0
35 1 5.1418580750004965 1.088403654851748 0.0 0.05384510420546199 -0.048179108279066345 0.0
36 2 18.481931000171265 16.984318856971612 0.0 -0.010947314303392195 -0.05888537529679274 0.0
37 1 7.490891837065199 15.355389728676318 0.0 -0.010169849025098874 -0.01955432146974061 0.0
38 2 17.629755373236073 2.4838353584379025 0.0 -0.034219434953977335 0.006025374465207919 0.0
39 2 4.361285196483514 12.032232253357686 0.0 -0.03497604798508538 -0.060715817406446396 0.0
40 1 15.710362382842968 15.973053822877517 0.0 -0.02459486556273115 0.06442987269184973 0.0
41 2 13.808701272039569 18.415083415523412 0.0 -0.05706796296511553 -0.11297793219517427 0.0
42 1 17.52760491652808 10.752479447697251 0.0 0.010338597107452222 0.04499223330337445 0.0
43 1 12.895594610666512 9.268628762194112 0.0 0.026379820960392635 0.031054118201951343 0.0
44 2 7.3843843523543775 0.27927417276942634 0.0 -0.040633780425411214 -0.025265626258664943 0.0
45 1 8.719622555817212 15.350598740685783 0.0 0.0031920209111042023 0.07043564674259713 0.0
46 1 17.37419612177452 4.77344672180338 0.0 -0.0028807154569974666 -0.03202053393047402 0.0
47 2 4.717846263578081 4.098211239818518 0.0 -0.043209601264355156 -0.012550965010068731 0.0
48 2 17.88638147090606 19.198991289923516 0.0 0.020807627663026303 -0.031471227091681 0.0
49 1 2.073210718134725 11.338988801988352 0.0 -0.03293812590037397 0.05400320514213411 0.0
50 2 0.9092912677469479 10.780800992566029 0.0 0.04128812057874831 0.01073730080885299 0.0
51 1 15.532898073949843 17.22392327343044 0.0 0.09165783326680313 -0.07702567941294212 0.0
52 2 10.978037219026637 14.823336126956105 0.0 0.016021075926587622 0.023191237603769396 0.0
53 2 9.629443625906314 3.4361195318822184 0.0 -0.018106507544238145 0.022333405792269587 0.0
54 1 11.81078547422994 9.707919702622462 0.0 -0.0703599362565422 -0.038343944144636086 0.0
55 1 5.443708751529123 18.02954151918752 0.0 0.08387602952589478 -0.05038119751505445 0.0
56 1 17.540683778277128 11.411950576717514 0.0 -0.03239063673343467 0.02264329874152454 0.0
57 1 17.063290531748123 6.81918151174524 0.0 0.10186948225096479 0.1255199612769041 0.0
58 2 14.230380416261843 6.060530246997952 0.0 -0.0069251399505296084 -0.10619964713667235 0.0
59 2 1.0288738695354476 19.248050313964487 0.0 0.03669919951898246 -0.09600926132648915 0.0
60 1 3.3090589460614543 10.755649036580383 0.0 -0.0810223428296494 0.12706727756034425 0.0
61 2 11.666363316343334 5.939790104894338 0.0 -0.009311338401273468 -0.07019491248129514 0.0
62 1 14.025257512399037 1.5694070663644188 0.0 -0.019940223147225666 0.11813424644788775 0.0
63 1 15.545394773605532 14.637149273203093 0.0 0.08869333174388531 0.10668763590047735 0.0
64 2 4.011440094621391 9.906167989852863 0.0 -0.0538889482147123 -0.025607708690074577 0.0
65 1 8.811320113330114 2.7273958475249342 0.0 0.027979267385515788 0.17851246845254837 0.0
66 2 9.684123511243634 8.767607787729466 0.0 -0.14917287263829163 0.06607182291692888 0.0
67 1 11.205156772242333 13.781460714834228 0.0 0.0217422724098849 -0.1489373549525175 0.0
68 2 8.33258714900881 8.730537299200423 0.0 -0.04303525866203506 0.016614004067465302 0.0
69 2 17.587662467050983 5.836096840271763 0.0 0.050601984013356034 0.04000837255036213 0.0
70 1 13.549640274327169 9.304259737642044 0.0 0.006904338541143631 0.03307811202926114 0.0
71 1 10.69341776153505 17.144216398013793 0.0 0.0064965667790398635 -0.012264233933915417 0.0
72 1 8.19745129408941 2.5055269476424096 0.0 0.1853025905662658 -0.00955349526926996 0.0
73 1 10.061565733023087 16.877274939087886 0.0 0.0719586721931684 -0.07904516460882614 0.0
74 1 3.6218866514422525 5.532639414200224 0.0 -0.04610636049694389 0.08310612803847 0.0
75 2 19.40500245707137 7.226041162394346 0.0 -0.025855384106321138 0.015270793835842256 0.0
76 1 9.201803500463688 14.839219066491303 0.0 0.011208488041673027 -0.2300155090263031 0.0
77 1 11.912694487102671 11.928487255023462 0.0 0.11305500833848135 0.09721712421974713 0.0
78 2 7.582508412885044 4.1248207286911835 0.0 -0.13069437219613306 -0.08746118972283852 0.0
79 1 15.381849839253082 16.57727628837968 0.0 0.0474683268496947 0.03727140717856085 0.0
80 2 9.708204775906745 15.81675043124888 0.0 0.002625393929192561 0.07978930602836597 0.0
81 1 17.876963388069623 10.164551822861434 0.0 -0.003923247129073466 0.17977108279240184 0.0
82 2 18.319958301454662 1.4563084282294174 0.0 0.0026248073678362665 0.02688297445538819 0.0
83 1 10.149331016717364 14.046926571815671 0.0 -0.039950818432810946 0.0666682732808794 0.0
84 2 14.500176031771902 8.778074250797836 0.0 0.06385162703568645 -0.012280885347142816 0.0
85 1 6.340620401871689 2.9510218695055834 0.0 -0.050778505346943635 -0.10635498205272638 0.0
86 1 2.8839757928093084 3.3870988908886845 0.0 -0.11923411742132278 0.010721303916268755 0.0
87 1 1.9468629244648905 1.5718027042285252 0.0 -0.021903758569167493 -0.0655355513931964 0.0
88 2 19.508886472022745 1.6906205404894454 0.0 -0.05364808979597497 -0.03784977715187879 0.0
89 1 13.903671252457594 13.487339375333102 0.0 -0.145929364510169 0.07138262283404904 0.0
90 2 16.464729281356824 17.72261630648293 0.0 0.032185383598613344 0.030188847731903504 0.0
91 2 5.569728147845636 19.107862827376383 0.0 0.0371590404003285 0.08830506302667487 0.0
92 1 11.269523948966613 9.291641154716043 0.0 0.0018122396725413286 -0.01219595663829603 0.0
93 1 13.424736288396009 10.532371672152832 0.0 0.12600561305602548 -0.00721868643711977 0.0
94 1 8.686498515832332 4.01251051414763 0.0 0.019625730954508282 0.11844902872399389 0.0
95 2 12.313040649248052 1.4628139082431404 0.0 0.02202293114421235 0.09029409159888349 0.0
96 2 18.688124067031616 14.339919860590344 0.0 0.0003172061398020578 0.1404736775979962 0.0
97 1 6.283858135739755 0.15262974077488903 0.0 -0.096320751984036 -0.03009221791859059 0.0
98 2 6.159669207112699 13.384072113786969 0.0 -0.08290162992254298 -0.06619928451617582 0.0
99 1 10.785145151501432 8.788746611716995 0.0 0.07972277110151822 0.06245880400085554 0.0
100 1 0.41674842880763213 9.434403736745201 0.0 -0.07251004333320911 0.05395195915956227 0.0
101 1 9.467150598354898 14.21839895055306 0.0 0.06437568997514487 -0.0980431893068552 0.0
102 1 10.513734041049432 18.989054432651088 0.0 -0.005881705661972752 0.07481056374994102 0.0
103 1 9.12555579015221 13.099428384503314 0.0 0.0016919999208510497 0.004395225991949022 0.0
104 2 6.488283472039731 9.953771784106797 0.0 -0.02793735352402806 0.0048800851902437055 0.0
105 1 19.58646994441056 10.64279892104122 0.0 -0.04051178062534156 0.049651365497686666 0.0
106 1 1.9870639072272414 10.657949585729002 0.0 -0.003081271799643473 -0.04269274327940056 0.0
107 1 15.389323236604044 17.94877498481436 0.0 -0.020218095681065154 -0.05570768899343869 0.0
108 2 17.293636759038126 7.865704562892975 0.0 -0.03655440669296766 -0.05402358592587363 0.0
109 1 15.221722138719304 10.683462107456673 0.0 -0.07542102380386621 0.03888164052664691 0.0
110 2 14.655976336687727 3.8690662717346695 0.0 0.009269958336310542 -0.009692478832452351 0.0
111 1 13.546631929947388 16.76268023845955 0.0 0.0030835749409107373 -0.010027004089822732 0.0
112 1 14.358954970829423 14.000444530746195 0.0 0.00536080848114015 -0.08082512344163971 0.0
113 1 9.31643708216617 5.702000786436022 0.0 -0.028508495028931966 -0.04138076144771421 0.0
114 1 15.997402681630644 0.9377820573295845 0.0 0.22627044004009297 0.09303063849537611 0.0
115 1 14.677527243248338 11.102107257674069 0.0 -0.041974542839551675 -0.12831716074891703 0.0
116 2 9.62520178184819 4.652005317903169 0.0 0.10349515828922584 -0.018479313838875373 0.0
117 2 5.526934332463693 14.486078548593536 0.0 -0.06410404655147979 0.13355043558878996 0.0
118 1 6.75248331425364 17.81239810679349 0.0 0.024659914171659338 -0.10879556709402172 0.0
119 1 16.241034503607285 14.72910397962726 0.0 0.04077467319486154 0.031091418499133203 0.0
120 2 17.319988794949513 15.399109867334664 0.0 -0.04177903705446669 0.025480767177549303 0.0
121 2 9.746163755540547 6.693772656240502 0.0 0.00518597854659636 -0.031116680873803322 0.0
122 1 0.8236712877150149 16.928296273508863 0.0 0.12728712974534134 -0.12097213398337987 0.0
123 2 2.399307487384344 7.70577111608716 0.0 0.037978136064167216 0.024420766928347992 0.0
124 2 17.0728705502458 1.2896107738408298 0.0 -0.02570905686470362 -0.016538736113518023 0.0
125 2 9.61516342714134 12.119754961034854 0.0 -0.01827181593178549 -0.06298748393406468 0.0
126 2 8.959515916346163 9.814122483250099 0.0 0.03570150128321397 0.012316090319410172 0.0
127 2 5.232478585688251 2.8655076245536706 0.0 0.005302025806648136 -0.04220788528077977 0.0
128 2 5.168579047323099 7.496008107825537 0.0 -0.02287693649763654 -0.030471564339530976 0.0
129 2 16.752558765837424 9.992991594818056 0.0 0.01992284066798421 -0.06739341999507989 0.0
130 1 13.350829022114187 8.654444405159353 0.0 -0.12883662970192455 0.03553080572449154 0.0
131 1 1.0232124983948607 14.844091155392121 0.0 -0.05273212951075492 0.009526737118850877 0.0
132 1 6.415282264102512 0.8056904450599379 0.0 -0.021311011310080074 0.0015148301072780133 0.0
133 2 2.844606332099907 14.002051499350976 0.0 -0.01581843565286051 0.09934682255735083 0.0
134 2 12.451243991208804 16.731575867022777 0.0 -0.046258855208497436 0.034251024026050875 0.0
135 2 5.584305934406908 12.182389054855694 0.0 0.022079535943543456 0.039848660169147995 0.0
136 1 16.70648147069324 4.994780749911035 0.0 -0.046262687125504735 0.10756404762271982 0.0
137 2 1.237332947760131 15.917594823188328 0.0 -0.016021143394275638 -0.07207683143313798 0.0
138 1 19.00545789520053 3.9455604945049028 0.0 0.06506382637326409 0.04100045463503613 0.0
139 1 8.99800551742459 13.752843771020961 0.0 0.005898748105878704 -0.03510544816751142 0.0
140 2 5.940168620572639 17.056251836693328 0.0 -0.02801756225607898 -0.035880114509555784 0.0
141 2 7.870381473976972 17.79913452045541 0.0 0.026179845153831496 -0.002787302067480489 0.0
142 2 7.070959413141204 6.512050897714532 0.0 -0.004358246381419666 -0.04393356644916725 0.0
143 1 8.64652087135584 16.028542190274756 0.0 0.016911425690616717 -0.05792994128246457 0.0
144 1 5.132068466382732 0.36077187773563985 0.0 -0.0036132178102523593 0.20535555363955632 0.0
145 1 15.051282754898706 15.71585747113768 0.0 -0.18848985946858327 0.0031408559093578305 0.0
146 2 0.31446564338663724 13.966423567084286 0.0 -0.017595424892915223 -0.037722671297611095 0.0
147 2 13.689821082335982 4.813363317060331 0.0 -0.011834484844809229 0.018035575656241736 0.0
148 2 2.130448502871815 4.254327342537515 0.0 -0.03197405004919536 0.035835470914461445 0.0
149 2 1.8268896918813917 0.38998332661662216 0.0 -0.0765683251089819 0.05918875088535082 0.0
150 2 12.752487123509908 13.43404397041559 0.0 -0.028749838227812758 0.094183692545176 0.0
151 2 7.600905018518663 7.626871308796903 0.0 -0.00977131890646061 -0.014729692742256646 0.0
152 1 1.5290282643971174 16.98222879748746 0.0 0.012735755386276667 -0.09198658518397963 0.0
153 2 13.55143171885995 12.447067094879683 0.0 0.06872815773472421 0.0534551488004653 0.0
154 2 3.3593550456438517 15.228970832045848 0.0 -0.04900074888165715 0.05793007040182053 0.0
155 1 7.978267189772832 1.874340281060672 0.0 0.09292398141853611 -0.024667416156447505 0.0
156 1 1.6080346522061815 8.500693972536927 0.0 0.17790794170414465 0.1297002624704309 0.0
157 2 15.155978826205759 1.6569995710982284 0.0 -0.009532570427972039 -0.016771412484013943 0.0
158 2 1.7659087020081006 6.541074031218984 0.0 0.0051275446065954435 0.010600096909034544 0.0
159 1 10.06157542180179 7.734499070715667 0.0 -0.019004918312636874 0.09658674339764527 0.0
160 1 19.457984072936163 9.492835266665724 0.0 -0.0014050853140256455 0.13812675198452 0.0
161 2 4.88451378106193 16.530450335979577 0.0 -0.0023271043154793453 0.026217500318612558 0.0
162 1 1.4348008219125508 2.0169728529710675 0.0 0.006925683348431397 -0.11273016053959715 0.0
163 2 6.442142252994501 5.300483543114132 0.0 0.1324867495981341 -0.04312722197249228 0.0
164 1 7.011310112344851 17.138716317125443 0.0 0.018663488620817775 -0.032644514750369696 0.0
165 2 4.11850007498579 14.193871706343845 0.0 0.012689601593916985 -0.02084791807288836 0.0
166 1 0.10009583421068956 10.031492506557399 0.0 0.06954226889337867 -0.0887845076664434 0.0
167 2 6.868359240074058 14.460872035516669 0.0 -0.07055582943823015 -0.0169522059767063 0.0
168 1 7.548864674075782 1.367625784165781 0.0 -0.1264863847760916 -0.06759618532441491 0.0
169 1 7.521037776758412 2.4751581521545707 0.0 0.17789289986835718 0.0188272629195092 0.0
170 1 3.895482579965808 0.5466784195624881 0.0 0.017494405863989274 0.07099445474303273 0.0
171 1 13.958655833877662 11.089700957792097 0.0 0.12660912314635284 0.04281359333583937 0.0
172 1 8.71595183165722 2.0238044690512016 0.0 0.05215276144566498 0.00921479981480412 0.0
173 2 3.417569506183851 4.37627193628581 0.0 0.0008731330336947271 -0.011022820312637547 0.0
174 1 11.173042168420352 19.199609603308264 0.0 -0.015958352796927366 0.12174692192773308 0.0
175 2 1.2629184614595304 5.281434103953148 0.0 0.04739977314188269 0.0033668199688277915 0.0
176 2 3.9108218060944595 1.6620934426586405 0.0 -0.0816389765291371 0.005386519174112813 0.0
177 1 4.549877907993898 0.7230449108590917 0.0 0.08423646491387903 -0.09056384261585032 0.0
178 1 0.9830730641192423 8.717026475931618 0.0 -0.07963182595200766 -0.16558646801076835 0.0
179 2 19.627365845625643 11.769861258163813 0.0 0.07217507019648658 0.03920417274501732 0.0
180 2 10.995464862780548 10.43853393769329 0.0 0.08020787449876504 0.026353863778583328 0.0
181 1 10.707152656402627 4.572663223269743 0.0 0.15952682619778108 -0.02485855404770219 0.0
182 2 8.166444963600485 19.071627079508996 0.0 0.0005226422361585537 0.008134899127331301 0.0
183 1 8.884450178459636 18.22722178169344 0.0 -0.09926466776243774 -0.00806455961928329 0.0
184 1 16.03899887171375 5.236235448405019 0.0 0.01782424177092147 -0.05282526957476277 0.0
185 1 15.0077834548872 11.688385724076038 0.0 -0.03949872866482506 0.010013839430520472 0.0
186 1 11.809361375353761 14.02057572654947 0.0 0.107041192207811 0.0787771596246759 0.0
187 1 16.503957598801684 5.689175471704722 0.0 0.06448192088418955 -0.029235238011881173 0.0
188 1 13.345923012826672 17.404263064231134 0.0 0.08824743508163442 -0.005209089494141593 0.0
189 2 0.4902261467904626 6.299460015470405 0.0 0.09331071299769692 -0.05095783909205968 0.0
190 1 8.093216974129671 15.646585016767196 0.0 -0.09445502484961744 0.030722195623706997 0.0
191 2 5.842113431736654 8.550776592046049 0.0 0.08973221268932233 -0.04488383413246162 0.0
192 2 7.407542826043421 13.226031053528859 0.0 0.008572673188832255 0.006342220649124042 0.0
193 1 10.041465312148127 11.083012622130076 0.0 -0.030137735349973438 0.06683739418460419 0.0
194 1 16.227685491959143 15.411647426411816 0.0 -0.0005032814264668326 0.08766325653452282 0.0
195 2 11.889629645373684 2.6812791148413657 0.0 0.016159010709719104 -0.09401027815281855 0.0
196 1 14.866600950009703 13.569837095107637 0.0 -0.0034157519298105804 -0.08649927045196946 0.0
197 1 19.168084736794803 10.100259320632166 0.0 -0.018793879274096016 -0.12096258087948597 0.0
198 2 12.93989718533976 5.856227971113427 0.0 -0.03406716767353128 0.1413578119110961 0.0
199 2 3.3109045403285644 8.671239777592428 0.0 -0.026006999773466072 -0.0391494415105301 0.0
200 1 4.1755944346508596 5.163503539048417 0.0 -0.06525741969961865 0.02082465669089507 0.0
201 2 10.860595083788501 11.760864827427458 0.0 0.012222674006775503 -0.08374885965858722 0.0
202 2 16.77613865899269 0.06540132223249526 0.0 -0.08708163705035847 -0.002549898036019096 0.0
203 2 10.514802765755894 0.34348769074047913 0.0 -0.052393314429260596 -0.06715567399779358 0.0
204 1 14.962291591127862 14.992935179487295 0.0 -0.048360792364318256 0.060545936830856364 0.0
205 2 14.558704537360168 0.6047349911061325 0.0 0.042839375653221934 -0.08077925077809561 0.0
206 1 1.7426919145890858 2.6309420655766855 0.0 0.06476136261848313 -0.19447110025993175 0.0
207 1 9.642580530809996 13.561706729291004 0.0 -0.07800816668597106 -0.004520586634711967 0.0
208 2 16.23958243574353 2.175457017189222 0.0 -0.016945598092111578 -0.014994678103296502 0.0
209 1 11.14722678207228 3.517273677809405 0.0 -0.004164677577727456 0.012564835775619655 0.0
210 1 7.131560432834938 1.903691792928653 0.0 -0.032478928611429966 -0.037297430270206926 0.0
211 1 8.758917745768601 5.329002397918893 0.0 -0.006121899604685107 0.17257269228488345 0.0
212 1 14.702628135826988 12.301259319603146 0.0 -0.047133132173695795 0.11981893204140287 0.0
213 2 2.531900930982074 5.430904997841308 0.0 -0.026653932831652138 -0.062369523391336286 0.0
214 1 19.619928954428612 3.67413359213113 0.0 -0.02351968656622889 -0.02427735901774314 0.0
215 1 11.262532393950345 1.1509643879428215 0.0 0.046911610139715704 0.06468337342212035 0.0
216 1 17.4751188893676 13.057258484194952 0.0 0.05004848883343899 0.014293680178169494 0.0
217 1 8.480118952176113 3.3607157278606365 0.0 -0.006649935335008962 -0.04442157782338245 0.0
218 1 17.809840086129768 0.5037054867359015 0.0 -0.0588311790016153 0.01019030052457819 0.0
219 1 16.0488217229525 16.682921333998266 0.0 -0.02381347402356655 -0.0713866963228911 0.0
220 1 6.454322775863293 4.198556454841433 0.0 -0.022785359913393 0.046559438486557615 0.0
221 2 18.5698583126036 15.682467436697673 0.0 -0.026752980744535516 0.0678692403406167 0.0
222 2 1.4871057942053525 9.654057599902027 0.0 0.009180064202456267 0.0010981646601364648 0.0
223 1 2.7309521847476925 18.57168466450562 0.0 -0.07123240982034705 0.1034275183035343 0.0
224 1 1.9587425722502794 18.684576841990783 0.0 0.07093828780837859 0.03254031485521458 0.0
225 1 4.914615261763936 17.61313597377387 0.0 0.027663036487684176 0.0034973096158225914 0.0
226 1 18.521268942234745 9.867111096950136 0.0 -0.08336537698733862 -0.022374394684358746 0.0
227 1 18.481947156650495 0.34924708502847596 0.0 0.03920184710356472 0.1523348613814834 0.0
228 1 0.9807899534230455 13.040966556336079 0.0 0.1306064535774683 -0.03452244244769041 0.0
229 2 14.466282538421417 17.39194455908019 0.0 -0.03039722232774088 0.04680756697559883 0.0
230 1 14.278983038089844 15.105173152500868 0.0 0.0021594314887040055 0.12440786420425087 0.0
231 1 9.89550517262009 14.738860208077108 0.0 -0.07662776286658673 -0.014217172198957096 0.0
232 2 3.5712999241349537 13.014235401877425 0.0 0.011902831164696644 -0.002340237770139748 0.0
233 2 12.882874319313757 11.448299041413442 0.0 0.17445026325825994 0.021052464960722113 0.0
234 1 13.206661076713969 9.883635662474825 0.0 -0.01793245036372643 -0.12194610071355462 0.0
235 1 11.769291860586735 3.765201610534986 0.0 0.09274388598023524 -0.048690747895824 0.0
236 1 3.163116177335467 19.13804001783844 0.0 0.013349886617342613 0.06038335497559291 0.0
237 2 4.568138944510464 8.656182231052075 0.0 0.006353915618506907 -0.012656138614468944 0.0
238 2 3.1516145659816845 17.534775273987403 0.0 0.01776631620777231 -0.03113954089662388 0.0
239 1 11.649227013416567 13.28603936142704 0.0 0.029631993680762605 -0.11650993729636674 0.0
240 1 12.940431401140088 8.004469291133015 0.0 -0.035308384051842855 -0.07803722196471118 0.0
241 1 16.925668127094053 11.104388603075458 0.0 -0.15264128203831107 0.06351183585109571 0.0
242 2 16.064685912732962 7.36116555841798 0.0 0.06707623722205118 -0.041909041669505674 0.0
243 1 16.905707801707045 4.332000152347875 0.0 0.019395371945054207 -0.012579385312292643 0.0
244 2 17.682112046929117 17.954941013104005 0.0 0.05519306460625668 -0.03423896776710896 0.0
245 2 6.013192983211047 1.8262768863599157 0.0 -0.10322210212561099 0.03809632636854695 0.0
246 2 4.609549098902358 15.344077553515373 0.0 0.06177104354304244 -0.13304449649407926 0.0
247 1 11.405268378217444 17.060321408429196 0.0 0.002799917344895817 0.04154315013416646 0.0
248 2 3.692406310000486 16.433857580763583 0.0 0.07607713864015865 0.03402626802975573 0.0
249 2 18.513114630722985 8.176663113712609 0.0 -0.011070630191666883 0.031463436171546524 0.0
250 2 6.445853496299846 11.283780060393838 0.0 0.03233143322339302 -0.038063042746119505 0.0
251 1 14.328641125756345 7.702055679645638 0.0 0.10148935328363372 -0.08226080149139708 0.0
252 2 15.496545971357518 6.2564355536255025 0.0 0.03437986935201957 0.06729825879339447 0.0
253 1 2.208269013270674 18.078326435319006 0.0 -0.011325250717937356 -0.13697144347828627 0.0
254 1 16.592787190589704 6.356443235432234 0.0 0.016880905463851882 0.0965415611068621 0.0
255 1 19.392879531334593 16.39332811962981 0.0 0.13967143382378797 0.04605611876176004 0.0
256 2 17.239445338141483 16.704392922877968 0.0 -0.006465563755757915 -0.012056148356162037 0.0
257 1 15.5272008352982 3.0539619329680283 0.0 0.02102131721531773 0.10955385503503376 0.0
258 2 16.691997828396357 3.285555479301479 0.0 -0.005347825314264356 -0.009351255499142789 0.0
259 2 2.8888720652265634 1.0099470435275153 0.0 0.11524441243599774 -0.003346670776103905 0.0
260 2 6.855367636252621 18.918819585127043 0.0 -0.06463022544552799 -0.05217793538275108 0.0
261 2 1.1541873618149596 11.957692180794163 0.0 0.00894319356209087 0.008307186273100491 0.0
262 1 2.224981319492623 3.177096327507848 0.0 -0.09343566910585444 -0.05951038674962761 0.0
263 2 18.992310584441398 6.003467537051872 0.0 -0.014180554197906241 0.1451545783579877 0.0
264 2 0.5925254428401278 2.8057387439253354 0.0 -0.09038191809833687 -0.002038517499924516 0.0
265 1 7.448097774901308 16.03838925382995 0.0 0.022159113728456064 0.03460230217411602 0.0
266 2 7.061809792976237 8.763577720440718 0.0 0.02382391769688208 -0.09240095975379727 0.0
267 2 11.695312056638635 8.186810716045324 0.0 0.028194109049510408 0.06520743435132477 0.0
268 1 14.37179768129186 15.768732743511203 0.0 0.05349726712059807 -0.044765713751620494 0.0
269 2 18.150664972005075 6.932647099565476 0.0 0.06169226625246045 0.013915787965669849 0.0
270 2 18.57348456675085 11.02519490693815 0.0 0.03579730072225418 0.026581142454530804 0.0
271 2 10.958381437970273 7.081458820388935 0.0 0.009406490199942706 0.010877478859561624 0.0
272 1 16.267581178334623 11.211128575452031 0.0 0.042925367800809654 0.005729328494573032 0.0
273 2 18.221539869437315 12.252756935094737 0.0 0.06516123561988689 0.013529031569626681 0.0
274 2 0.4606957066479242 0.6069949184980151 0.0 -0.06244711805992977 0.015994100915344298 0.0
275 1 7.165822414372377 3.1001649922934322 0.0 -0.10354815633246894 -0.01736109826652188 0.0
276 1 10.602894747491073 8.130320475624957 0.0 0.11585389630134099 -0.06066716919429866 0.0
277 1 12.759318669252282 10.380419732085073 0.0 -0.04127974511730808 0.09724640607364653 0.0
278 2 7.722477965440985 9.857608967048863 0.0 0.05473509029357572 -0.04546657349670803 0.0
279 1 14.100800404901005 16.381500739706453 0.0 0.04468845538880801 -0.05485318751690776 0.0
280 2 8.339491636283697 12.258887129710589 0.0 -0.02356709664244458 -0.008684871903940879 0.0
281 2 12.866437624342389 19.237427486780824 0.0 0.05288224514171162 0.044240738103992164 0.0
282 1 15.080492305738801 12.898078864059302 0.0 -0.039152613966194655 0.12139099036655276 0.0
283 2 8.942132208554192 7.6430037306748995 0.0 -0.09367266017259217 0.09035426747896184 0.0
284 2 3.1039683595509993 6.542626929267369 0.0 0.04816731932115016 0.0032203186846194703 0.0
285 2 0.046237854514419544 15.361772912615855 0.0 -0.03342663404773184 0.027872495836769533 0.0
286 2 13.493511019296099 7.007644786476671 0.0 -0.01708994738209627 0.039104577709623424 0.0
287 1 13.914236147491875 19.503246531606003 0.0 0.03511800873304214 -0.10669103005466579 0.0
288 1 19.106162064974406 0.6309393850553294 0.0 -0.05737886021900007 0.017588769173224286 0.0
289 1 2.2137530000406027 8.812863517128072 0.0 0.036894282406910964 -0.0377818790317508 0.0
290 1 15.560987989001465 11.2548147112017 0.0 0.03499013577201257 0.06921017035494152 0.0
291 1 7.515989588316501 16.72023742890289 0.0 0.030703804774923512 -0.11803596108539186 0.0
292 2 4.887901142130595 13.213832015499513 0.0 -0.13111263240547102 0.0547118590675036 0.0
293 1 15.642893780929015 18.549704904309163 0.0 0.10001259246155302 -0.08189907245466081 0.0
294 1 14.43646094253029 13.063851668479705 0.0 -0.107040278517068 -0.06499576760874794 0.0
295 1 13.441261060221468 1.0852162788160138 0.0 0.04095695286490987 0.07706854810337682 0.0
296 1 16.259633802412132 18.836121430774202 0.0 0.04079442755696599 0.10515672146733519 0.0
297 1 15.883242634993895 10.635330637717184 0.0 -0.05036583339102466 -0.052569855154431196 0.0
298 1 10.609395817481207 3.9164465515216147 0.0 -0.05287217043957388 -0.01634393825669933 0.0
299 2 9.415050654192074 19.254463451299987 0.0 -0.0005892352665903312 -0.04453827738416873 0.0
300 2 2.4411181473003833 16.354879442782398 0.0 -0.025481306824989274 -0.07244463235403631 0.0
301 2 12.340882801536603 4.724088886896958 0.0 -0.005625525046944605 0.03857972662500364 0.0
302 2 13.203603675179206 2.3039421717862214 0.0 -0.056508023714860876 -0.05706255380082141 0.0
303 2 18.862921257946535 18.504817774362767 0.0 0.0457430871186309 -0.011807998622827014 0.0
304 2 8.147958559381468 14.43012384412843 0.0 -0.025745559534528385 0.007511375751495319 0.0
305 2 10.532952894109702 2.5961325953959946 0.0 -0.02033292524094008 -0.0020565239158476436 0.0
306 2 5.263226544384426 9.703389071154605 0.0 0.045517032054729165 0.002796104403603192 0.0
307 2 19.700416182379715 8.44623322219257 0.0 -0.002593298429471723 -0.0025181822392841735 0.0
308 1 18.05943545519769 13.405454207739666 0.0 -0.025575914370357344 -0.11432072118981391 0.0
309 2 3.8775460722573873 7.536411993625451 0.0 -0.025460190880193266 -0.06498040388615614 0.0
310 1 7.857654589407644 3.0754803319523814 0.0 -0.028717810866260133 -0.02233746685079444 0.0
311 2 16.438512770223745 8.74758542502048 0.0 -0.023183183548771382 0.015909264756598488 0.0
312 1 7.2501686748993945 12.111623602206214 0.0 0.011999823523027777 0.020061366446172704 0.0
313 1 8.06838580909876 16.346783828081072 0.0 0.05442707029674566 0.11616549355722267 0.0
314 2 5.061660591884374 10.9597317071338 0.0 0.01585235325370059 -0.08378270053529346 0.0
315 2 2.7348521776876438 9.804047335685887 0.0 0.03695308005112295 -0.04528872012669321 0.0
316 1 2.788744846686843 19.695783447569827 0.0 -0.025287759158595616 -0.10252621256832871 0.0
317 2 0.950673712887233 7.5939196535911835 0.0 0.02641793775131645 -0.10185021943530499 0.0
318 2 13.389320795310443 14.472424671606323 0.0 -0.048493882548504744 0.10660733538713144 0.0
319 1 6.113846486378479 18.13027180892634 0.0 0.02323532453230994 0.009239855197292401 0.0
320 2 13.255397383027221 15.700633365881828 0.0 0.05329375616712385 -0.08659968942262851 0.0
321 1 4.958019616168337 1.7648219228108273 0.0 0.15928106735117034 -0.016007850432722192 0.0
322 1 12.361541333363242 12.4309533569204 0.0 -0.0392803712770229 -0.03244100312640549 0.0