ITEM: TIMESTEP
0
ITEM: NUMBER OF ATOMS
400
ITEM: BOX BOUNDS xy xz yz pp pp pp
0.0 19.7609 0.0
0.0 19.7609 0.0
0.0 10.0 0.0
ITEM: ATOMS id type x y z vx vy vz
1 1 14.1314670784966 7.862397216534814 0.0 -0.0067332579017107454 0.12739024790176554 0.0
2 2 2.298712517406279 16.573170520974468 0.0 -0.04339751169260601 -0.07222845454609711 0.0
3 1 4.258507408378476 8.898316359691837 0.0 0.15014836511304241 0.05354929256088354 0.0
4 1 4.164064652312952 12.17979359440269 0.0 0.1492559271997989 -0.028978089424179145 0.0
5 1 8.370191751983274 15.0152428434369 0.0 -0.003413066443259001 0.04354300219513925 0.0
6 2 12.906098505290656 2.3539263556319097 0.0 -0.049148371651519855 0.01306619996667358 0.0
7 2 5.965911674752177 3.593208548810064 0.0 0.0014087799308022816 -0.04931116321771294 0.0
8 1 15.928843685931746 6.97309566235235 0.0 0.07394675817250287 -0.046374148087616564 0.0
9 2 1.0833534832807417 8.957580837481624 0.0 -0.015588698240862899 -0.03383294518918383 0.0
10 1 2.612040212838353 18.266216511840202 0.0 0.15961590169744208 0.14087077911362722 0.0
11 2 6.1462635957960945 0.24282768566172155 0.0 -0.0910059471577672 -0.003854586151370814 0.0
12 1 13.52194588485555 3.2516408034029407 0.0 0.009086244023970914 0.0009374968667202 0.0
13 2 17.584966210812166 6.716616443615252 0.0 0.05345592050273205 -0.051683027923248824 0.0
14 2 12.435537944462014 4.839920204049573 0.0 -0.001521623130466678 -0.05464864983719375 0.0
15 2 10.92420755227557 14.343459444387735 0.0 -0.09297035605242517 0.053324826792897816 0.0
16 1 15.050033854106127 1.3704901952761153 0.0 -0.0447229784850249 -0.166772210296418 0.0
17 1 3.903278525263545 12.819128816014484 0.0 0.009976836788278603 -0.04214122504910946 0.0
18 2 7.234485593493353 3.9385473936433266 0.0 0.027571974394169203 -0.0330548164604188 0.0
19 1 4.315783809856408 3.9622143865927786 0.0 -0.09353518310726697 0.03254084651271952 0.0
20 1 5.798296071166432 17.599714035448248 0.0 0.010894447932895934 0.02149432522791476 0.0
21 1 16.346386833685777 17.637278723745894 0.0 -0.15590949758623057 -0.06540020608459286 0.0
22 2 0.08490478891814715 17.435046686525993 0.0 -0.06280594563279937 -0.0008977899186825679 0.0
23 1 0.8757250506846556 10.99653894499705 0.0 0.0649477513037297 0.023242114822361364 0.0
24 1 14.66529299328574 8.335534142728982 0.0 -0.08283263148142744 -0.038790933557790806 0.0
25 1 3.797883779786843 9.405734116800001 0.0 0.12674530580436844 -0.012684037828672995 0.0
26 1 19.167488196600473 2.9972756784908605 0.0 0.21111404803222944 -0.01209638030817507 0.0
27 1 4.631830517000739 0.17547790298046165 0.0 0.06397060442589192 0.004231717804242172 0.0
28 1 11.711409205894341 19.419391517879824 0.0 0.05783347127883803 0.06685155264077135 0.0
29 2 5.829771685438142 7.674431848324247 0.0 0.03923978595894852 -0.020477134845109445 0.0
30 1 12.238986101453847 0.07860983229973866 0.0 0.02634154037551327 0.0044754738517348335 0.0
31 1 15.464158535764684 7.469843118183058 0.0 -0.007257737848364138 0.052872078557083056 0.0
32 2 0.8177832564650948 13.371949343906367 0.0 0.007094749055795406 -0.06262948967448125 0.0
33 1 5.730095064437122 18.278198910328395 0.0 -0.04526825463560776 -0.05712268164141433 0.0
34 1 5.121614903722457 15.943743939993293 0.0 -0.20820812801479177 0.011286011728938772 0.0
35 1 3.391763469888978 3.927787913715679 0.0 -0.1762176532193144 0.15066991785848757 0.0
36 2 18.3101696893733 10.936613214658276 0.0 -0.027718940705955247 0.1333532346145078 0.0
37 1 6.282954316865138 1.3123864863664658 0.0 -0.019766375700143266 0.032467305483932556 0.0
38 2 7.345492975539271 15.406450852795205 0.0 -0.04159474023904076 0.046846065212033806 0.0
39 2 14.413538049571994 18.98309435676348 0.0 -0.011761090828866923 0.022342627816127395 0.0
40 1 7.556636083055711 2.8275658199393328 0.0 -0.030800755548624898 -0.04441458570278773 0.0
41 2 17.299832251357618 1.6349722910893096 0.0 0.03971597824618261 0.07539186400175839 0.0
42 1 1.5232774015518218 2.793355991578722 0.0 0.033651833955830046 -0.0316897149999343 0.0
43 1 16.560701775290944 18.267834814346877 0.0 -0.021797427777543683 0.09241487129728844 0.0
44 2 7.108675875518257 5.954595269608602 0.0 -0.0390985407678389 -0.006812483112051184 0.0
45 1 6.96314474041403 10.813484529164562 0.0 -0.046591092476882326 0.08516876199952826 0.0
46 1 17.75738606960099 13.87771737492604 0.0 0.05401449729560015 0.02588245050062312 0.0
47 2 10.597108145792054 1.795342590175996 0.0 -0.001919522734466909 -0.03822733112853765 0.0
48 2 14.180905489724786 17.782937684400668 0.0 0.09528445793896727 0.058585166386291763 0.0
49 1 9.479884958375504 11.995605941905676 0.0 0.03264807468900311 -0.06443516093755683 0.0
50 2 11.471525188939598 6.707164604483558 0.0 -0.0458147821452323 -0.07521092560528517 0.0
51 1 8.085628016414896 5.423198694443521 0.0 -0.09866502273361272 0.04851433486490751 0.0
52 2 14.456541375206763 0.48538791632906003 0.0 0.01330229070905849 -0.09026114746811183 0.0
53 2 1.8271503308697978 14.178581477914143 0.0 0.010077100976779363 -0.031521899759662485 0.0
54 1 3.1269461426596408 9.540260787437946 0.0 -0.03339585554538473 -0.013423743380681155 0.0
55 1 16.495980232019072 16.995822096116832 0.0 0.04610828268685109 -0.03193901627599109 0.0
56 1 0.018465142635921833 5.702631340671737 0.0 0.0645387468245166 0.05046210839651906 0.0
57 1 18.708291246632697 14.732221855137604 0.0 -0.053075432765146965 0.030006416861100643 0.0
58 2 12.525822812032793 9.226414856366459 0.0 -0.02683524083878155 -0.027114600641350555 0.0
59 2 14.708834413997652 6.617789110039175 0.0 0.03631613858940553 -0.04123420377399974 0.0
60 1 0.2355951718414509 0.4035175296382162 0.0 0.08150575595695203 0.038499170207244825 0.0
61 2 3.3264746768058586 14.378360806619606 0.0 0.06535056587854048 -0.03486715912345128 0.0
62 1 12.435590599570496 7.2087637668681355 0.0 0.12360125076483135 -0.04027474700951514 0.0
63 1 19.364344322381744 5.179040142942076 0.0 -0.05742895509156244 -0.006928962257544732 0.0
64 2 16.909210613314674 12.854234061156877 0.0 0.002262403070905259 -0.00043465760885235153 0.0
65 1 9.97445444478838 18.078607021251333 0.0 0.0031573987701301195 0.07703314055504301 0.0
66 2 14.2222417332246 14.149640070554499 0.0 0.06534753659576308 0.03142929610344906 0.0
67 1 5.358103931991838 15.307345187828163 0.0 0.04262335097007012 0.0463871426134413 0.0
68 2 9.55015527649916 19.179345688361906 0.0 -0.003263446662578328 0.005146793953862219 0.0
69 2 12.096558221188394 13.903381461148133 0.0 0.06842595928975713 -0.03476543912536605 0.0
70 1 3.1927959407932374 19.349864680066794 0.0 0.053302725811415964 0.03044104916351548 0.0
71 1 19.30682092125862 15.05167900999154 0.0 0.0018655615158016837 -0.07183485077824507 0.0
72 1 16.88371423838436 3.207243187685103 0.0 -0.06667968947966277 -0.061706602920525704 0.0
73 1 16.209692758127996 10.64132015741646 0.0 -0.02342368940899958 0.06961320171706413 0.0
74 1 3.3310369751888107 7.344718583631356 0.0 0.03662872645099657 -0.03600301237942074 0.0
75 2 17.624809609613386 14.971442847155554 0.0 -0.04676038408778967 0.029235628021074645 0.0
76 1 6.531165226510485 1.91494805796375 0.0 0.12562119362279198 -0.06528672560909261 0.0
77 1 17.757092805687066 9.117551088942353 0.0 -0.1600534157402677 -0.06421110385177338 0.0
78 2 11.730036709245276 16.468758213070746 0.0 -0.02040197626306682 -0.02935252252926272 0.0
79 1 5.341652179924862 18.852251687336548 0.0 0.06757824122891654 -0.0276953234335552 0.0
80 2 6.2032258553835335 12.620174554302263 0.0 -0.008129519328555422 -0.07525906057661451 0.0
81 1 16.301967240994777 3.54496424438516 0.0 0.07915611237394986 0.13810360810560204 0.0
82 2 14.1004790041588 15.358631310518998 0.0 0.017041312146745733 0.00872607702276086 0.0
83 1 5.211008322668592 14.643670813260425 0.0 -0.022632246483183405 -0.05879378549556533 0.0
84 2 14.558666856405083 3.62241371857211 0.0 -0.02390082680293473 0.05414683752746497 0.0
85 1 16.221716188999075 16.37680632292573 0.0 0.0617706736327637 0.08748495409775604 0.0
86 1 7.139670022808916 19.572890878259027 0.0 0.005202638505350159 -0.04177955297356772 0.0
87 1 16.640293308610886 5.306653443737514 0.0 0.03016075273226536 0.07103014626467347 0.0
88 2 11.283296521066372 9.458337486646345 0.0 0.022456301632031075 -0.01753887012869595 0.0
89 1 15.124480501144859 10.20213355344159 0.0 -0.08201674762119272 -0.06186053135353358 0.0
90 2 0.6213597980154605 4.738969286467786 0.0 0.030411128814664783 0.00469017502942048 0.0
91 2 4.23247406903964 18.922007083051554 0.0 0.013527353121997748 0.00223865317078159 0.0
92 1 6.83038047798747 4.93972510855141 0.0 0.024029896074453536 0.033117605651680114 0.0
93 1 4.013816545657936 13.505285598338997 0.0 0.016585278321980635 -0.007805666698747433 0.0
94 1 1.7195255991562073 17.532814266372235 0.0 0.13191463154707833 0.049586840980084 0.0
95 2 17.322132715868637 16.29567843455366 0.0 -0.05040898149984062 -0.07916093174764077 0.0
96 2 12.855867540339915 1.001258470574577 0.0 0.037068180998060786 0.009875337353084164 0.0
97 1 6.683181174972412 19.074361130537334 0.0 0.11999270511129173 -0.017562470904042095 0.0
98 2 17.756942098292278 0.4107553468960098 0.0 -0.041468687103810714 -0.04446946018180317 0.0
99 1 5.642737437908986 2.5794810053912345 0.0 0.003349131770549056 -0.19248514706556466 0.0
100 1 0.6887334765100704 18.391514845975102 0.0 -0.029735696595058467 -0.0847015974479054 0.0
101 1 11.814015705997319 0.589354776997618 0.0 -0.027909023890776333 0.06325278666977985 0.0
102 1 19.609721338769745 7.929879535887222 0.0 -0.07540642424596022 -0.11021211806488106 0.0
103 1 4.695685229599415 7.5983176696637775 0.0 -0.017433212650894904 0.023448999005954603 0.0
104 2 18.520062928601707 15.82436147328434 0.0 -0.09980873507192518 0.0128886977543842 0.0
105 1 15.274647624222286 8.108525665700771 0.0 -0.07593063293451893 -0.09181882754122478 0.0
106 1 4.461092024724919 9.612193386889263 0.0 0.009451309432178936 -0.07029867026786248 0.0
107 1 15.044906247160686 2.0375899521339966 0.0 -0.19727223839593658 0.0722547202863601 0.0
108 2 10.186402161303546 0.46165044764468255 0.0 0.0985253614115992 0.026679034000366912 0.0
109 1 16.77200207472822 5.985010284353589 0.0 -0.01118470949769787 0.10537372139300025 0.0
110 2 3.477660830096249 17.571797781613007 0.0 0.05446527813107219 0.004119276130540489 0.0
111 1 0.21102330188785334 11.067596619750448 0.0 -0.06637128146631426 0.09609093727122019 0.0
112 1 7.4651971535597195 8.19316243264682 0.0 0.06443724675074969 -0.0042247513457635095 0.0
113 1 15.459736501170653 3.026715039226783 0.0 0.02185656671801294 0.02996633562857069 0.0
114 1 15.224765121160925 8.767584377863459 0.0 -0.0435214400563617 0.09790398402903047 0.0
115 1 3.198772937936681 18.643590613186632 0.0 0.07514787476189314 -0.008009979083562584 0.0
116 2 1.3718070485226526 7.261230082744333 0.0 0.02028449468929948 -0.012965388414176314 0.0
117 2 12.467259302689804 3.5613275095575063 0.0 0.03601828045047818 -0.054259486687948215 0.0
118 1 18.260838378383678 4.483396292862445 0.0 0.07575025159693106 0.02573604330673573 0.0
119 1 18.261361221287782 16.895887488025064 0.0 -0.02167978135005019 -0.16370682118772004 0.0
120 2 1.201269902535787 15.45009256264815 0.0 0.007789921072091739 0.037638681708468395 0.0
121 2 3.4474795819350166 16.111906291778254 0.0 -0.024612122209273703 0.06867677850107419 0.0
122 1 0.06473439642940111 8.560507970421423 0.0 0.17070726355322607 0.03555388244562418 0.0
123 2 13.581338201798026 4.347935117346078 0.0 0.08406050827454502 0.09953670761523652 0.0
124 2 9.657605478327222 10.88366603168369 0.0 -0.06769658366858745 -0.045137359134538924 0.0
125 2 18.72087053570873 8.565676889937231 0.0 0.02738721012744856 0.05388690976417508 0.0
126 2 7.534165926938292 14.223604458656208 0.0 -0.013933174755269409 0.06951754531802208 0.0
127 2 9.391470351175073 1.4706607232449829 0.0 0.10271521495232945 -0.06229381371186209 0.0
128 2 11.319727965285669 4.194914388702121 0.0 0.05065566420226679 0.05043900512575158 0.0
129 2 17.52213843057835 8.010551624259564 0.0 0.0534726729672612 0.009830209544119608 0.0
130 1 4.107837304368256 0.6069647323801738 0.0 0.05528787953252861 -0.0836067053281135 0.0
131 1 9.858932698369983 14.094248775472742 0.0 0.012333182953381058 0.030213763585089433 0.0
132 1 5.867429801431356 13.682604988466755 0.0 0.009224102502681603 -0.06496450695909488 0.0
133 2 7.315402160344265 9.790661681949315 0.0 0.04226200021893007 0.07213669835085453 0.0
134 2 2.9065754769405876 13.235093970489313 0.0 0.00652408458744012 -0.030875543284178717 0.0
135 2 12.966749998943692 18.264829005809265 0.0 -0.07806839960839568 -0.043385438920912484 0.0
136 1 15.599855741523049 0.9707849304013209 0.0 0.007896992219032086 0.046528184790922675 0.0
137 2 0.006500541503065931 16.04357381869443 0.0 0.028665929067355028 0.029517129802323697 0.0
138 1 4.9909778337792945 16.65217463500294 0.0 0.03248483416974692 0.03715739119209136 0.0
139 1 0.5229748195570841 7.986095514192095 0.0 -0.08752470323905186 -0.05947253980976425 0.0
140 2 1.6161831925350085 3.8833734570065657 0.0 -0.01209998231532289 -0.012471213116787422 0.0
141 2 10.780478149332463 18.856003988014603 0.0 0.013376103037153397 -0.03392987725904881 0.0
142 2 10.320987002643601 6.056867941132438 0.0 0.01217070525267317 -0.10569271579423807 0.0
143 1 2.6563688625133457 10.029481800597116 0.0 0.05884201569150228 -0.07467056145061837 0.0
144 1 6.850390674354942 16.91471011300478 0.0 0.1315597734308922 -0.054836043036704606 0.0
145 1 16.690080163444325 11.104363826400736 0.0 -0.011738987634589075 -0.031665721970343 0.0
146 2 9.351410670854433 3.5215465742161074 0.0 -0.042476828931756444 -0.01467160437158661 0.0
147 2 15.677221278311302 5.859781669428817 0.0 0.049710748687921545 0.019489851209037568 0.0
148 2 6.289895478160268 14.711670601032038 0.0 0.014906357860377691 -0.03567882667842476 0.0
149 2 2.094350587908727 1.8616481339763764 0.0 -0.04219934571410609 -0.08598753521334394 0.0
150 2 10.503925371321444 7.514749316746478 0.0 -0.0008598935916402992 -0.04906835364013529 0.0
151 2 0.6778562937405503 12.095200847953166 0.0 -0.011749135332288165 -0.07729310047893727 0.0
152 1 5.859159183773099 1.9494975298096493 0.0 -0.05539651741384938 0.048728485090255395 0.0
153 2 10.887917067638456 10.648996432785127 0.0 0.006570986536353066 -0.009815847704368028 0.0
154 2 11.846291184508042 11.788564425416656 0.0 -0.10541234817755193 -0.019798448415397497 0.0
155 1 10.70052150308199 16.852791649865246 0.0 -0.11258781609055116 -0.013580669802762345 0.0
156 1 10.228791154827606 4.206411920024193 0.0 -0.07194198548020946 -0.012169574672254685 0.0
157 2 5.9839392420544195 8.908854535520486 0.0 -0.011035253243853453 0.07399320597714633 0.0
158 2 15.123881338824717 11.84140758804091 0.0 -0.043155612315909725 0.09659466011894355 0.0
159 1 5.151981341411803 9.641618079085399 0.0 -0.14086990038785133 -0.09869987517099259 0.0
160 1 6.149864104152482 5.289452756837576 0.0 0.05547585194074451 0.06633705467200639 0.0
161 2 17.25285031413251 10.169163215129945 0.0 -0.05280268564841734 -0.03835195903307318 0.0
162 1 17.31601278263681 11.31114816195932 0.0 0.010511440414883411 0.01368768194030036 0.0
163 2 8.562886707444704 4.4559291891636565 0.0 0.002529197130785262 0.07744977711150891 0.0
164 1 15.644858904547345 3.6945219896247496 0.0 -0.07913462961387084 0.047603505447487385 0.0
165 2 18.594885164085603 1.4265299485415572 0.0 -0.007426566406927941 -0.012816162029162899 0.0
166 1 16.448242805228087 18.947400138669067 0.0 0.05265946830876237 -0.06889990691974765 0.0
167 2 16.303027687755602 8.30135386163022 0.0 0.07810698735952792 -0.057606973734551786 0.0
168 1 12.792191970270016 12.386041345159168 0.0 -0.03613905703378111 0.12185804606023667 0.0
169 1 16.205899134652075 12.00037049351829 0.0 -0.02547909749855028 -0.013842093546902447 0.0
170 1 7.338858003581268 18.94090175533773 0.0 -0.05011899343604593 -0.09313268731372505 0.0
171 1 16.23111053388944 2.08651648317881 0.0 0.04319789425180018 0.138608764093938 0.0
172 1 5.244350447474738 13.994758451372096 0.0 -0.08374512962223501 -0.14347691289790157 0.0
173 2 4.267688652505935 15.144247106115468 0.0 0.01605136670977572 0.022716619934475286 0.0
174 1 16.212243629224986 1.413880273137747 0.0 0.0456878691017892 0.14195754853533968 0.0
175 2 4.924439135983616 10.689502557015418 0.0 0.05729806135969855 -0.061782221446969196 0.0
176 2 9.412342750887396 6.881204078332955 0.0 -0.09284475320116733 0.05699696094665772 0.0
177 1 3.1529540459522423 2.159204183606405 0.0 -0.12617588367336316 -0.08220106721196742 0.0
178 1 9.9700937381547 8.492053177304667 0.0 -0.003982596300198198 -0.13125888459566804 0.0
179 2 15.064981637993641 4.734073314309319 0.0 0.13008440963074466 -0.014803261024299599 0.0
180 2 10.727669421466354 15.659410736708162 0.0 0.02835110066579323 -0.053686775158793526 0.0
181 1 9.645427657542607 17.475241955109837 0.0 -0.052095096371363454 0.07314856827308969 0.0
182 2 4.9876776430563785 12.945094481589912 0.0 0.00011825230671022702 -0.12318455136891904 0.0
183 1 0.48963035076336325 10.445485112676842 0.0 0.08196047289124693 0.001838126423429661 0.0
184 1 14.778418546540129 7.679216641236381 0.0 -0.11000927392438752 0.06375379745806874 0.0
185 1 4.8813308676923475 11.81389504320404 0.0 -0.09213991696951941 0.04317855379435312 0.0
186 1 6.925809048710632 1.0228203269149452 0.0 -0.05027963021256651 0.015185062764532024 0.0
187 1 17.522845341683123 17.998711594845666 0.0 0.043636956473980255 0.07227468713945256 0.0
188 1 18.937794986126992 16.82678255605288 0.0 0.02929752562542967 -0.037019868700362675 0.0
189 2 1.0140794377661533 1.1831112964966424 0.0 -0.06458148459905132 -0.15925347556351113 0.0
190 1 5.114222018062381 2.1859114493759004 0.0 0.06896371680234221 -0.12092896539150873 0.0
191 2 7.257634536552946 11.851173301125563 0.0 -0.14484482494076878 0.009239699546905896 0.0
192 2 11.706283497701657 8.1129171684718 0.0 0.021432780115506866 -0.03342604776018747 0.0
193 1 2.3947992119502537 17.634784786947936 0.0 0.009176680277396038 0.0002835824935327627 0.0
194 1 8.189807752091989 3.4211130238835517 0.0 -0.021498052147142635 -0.003949316711841199 0.0
195 2 19.47249941259444 13.95354279461469 0.0 0.09873367170497241 -0.057663984863762015 0.0
196 1 2.4504388533596697 9.357827621364311 0.0 -0.03598107703737762 0.03417017920682243 0.0
197 1 2.938038896558657 11.347953172702113 0.0 0.10796653857001559 0.1378478315569767 0.0
198 2 11.373126264193203 2.8980245620103253 0.0 0.014188032776012662 -0.04421285938306796 0.0
199 2 1.0677976918126748 6.006386649586689 0.0 0.014558898387159588 0.02729719776582191 0.0
200 1 15.862019998732075 12.63680691863402 0.0 -0.019962172625369982 0.07400561638594291 0.0
201 2 8.661031018504515 2.451487102148424 0.0 -0.012319943258316073 0.04860069653119435 0.0
202 2 4.150120196734585 1.70368333690273 0.0 -0.08936458592590386 -0.0064289170892731975 0.0
203 2 3.9366609679641895 2.9403027895118354 0.0 -0.07838245034063332 -0.004894613634396132 0.0
204 1 5.162041230867105 19.5241931716553 0.0 -0.04263687253763953 -0.07764765869679888 0.0
205 2 12.135913049559027 10.446337431036033 0.0 0.044050049520184924 0.02733737186303106 0.0
206 1 16.16764776744756 4.852491763683657 0.0 0.12831241714781497 0.058625224017842634 0.0
207 1 17.897977110862843 13.245992396757487 0.0 -0.04905776048792927 -0.04833539431024228 0.0
208 2 13.257458447415313 13.380279090866575 0.0 -0.022888695503241952 0.00045481297764489936 0.0
209 1 17.040646578837237 17.472118015076514 0.0 -0.0045075101405103605 0.06475029363488688 0.0
210 1 7.317254132421372 16.45971973960158 0.0 -0.0019803349322171887 0.09931255489492266 0.0
211 1 16.71963165160372 2.548660296411836 0.0 -0.07153529335531397 0.031180436431592202 0.0
212 1 0.2152197540402937 14.94241448531588 0.0 -0.0245305380140013 -0.072223060357147 0.0
213 2 11.360415947626658 5.446054850325223 0.0 -0.0035035176411973424 0.02356259900458702 0.0
214 1 7.641787805230967 10.829639894625378 0.0 -0.08571080517418164 -0.009299450919061645 0.0
215 1 17.075877315239165 19.241726585745695 0.0 -0.0025571540364137603 -0.08013794018044662 0.0
216 1 11.198333710537897 0.8533038904764273 0.0 0.02146873138903501 -0.02932756521648364 0.0
217 1 18.708448890561478 5.0033294361930984 0.0 0.07729549779481057 -0.0076815007468229515 0.0
218 1 1.0675561782398728 2.296577714024336 0.0 0.03705944886990225 0.0013088566764769213 0.0
219 1 16.068696433796433 4.205202722622337 0.0 -0.05189317056293746 0.1020962599218741 0.0
220 1 18.20331603721614 3.8030481004821186 0.0 -0.02366614163056701 -0.011105321468836521 0.0
221 2 2.4577209254570067 15.307357015157052 0.0 0.1067857651386366 -0.04122640533905504 0.0
222 2 18.76959455818128 6.11180034905474 0.0 -0.021216427490489565 -0.010100595507915925 0.0
223 1 13.956886431379694 2.731480495965314 0.0 -0.15393132572443777 0.06853421332790294 0.0
224 1 0.009634565852961045 18.526384691198665 0.0 0.08580712446046435 -0.06547586066044257 0.0
225 1 5.563992688264538 16.98220583896195 0.0 0.1384645652098393 0.007580264504277727 0.0
226 1 12.33375761093691 19.16703701076981 0.0 0.049690686204365814 0.10564744214868191 0.0
227 1 18.50029475089542 13.474895299038185 0.0 0.020083972708088402 -0.05124544651972815 0.0
228 1 4.517316100174906 16.19675990779648 0.0 -0.07957916837975318 -0.04461116375383272 0.0
229 2 18.121611904252124 18.961196914643008 0.0 -0.008738370213690208 0.014891484886855906 0.0
230 1 11.883062813852378 18.68866257097025 0.0 0.03791195707063663 0.08309578073580204 0.0
231 1 6.84980534799521 2.9574171434215333 0.0 0.07206708742058053 0.03242801073722039 0.0
232 2 9.465344667183263 15.115268741732935 0.0 -0.012329965312292235 0.04907600920461374 0.0
233 2 8.670828117860404 12.746643430012174 0.0 -0.03721139082877274 -0.03568324411159833 0.0
234 1 15.627177294344895 1.703052616387116 0.0 0.052185312869814725 -0.026991854883179737 0.0
235 1 4.295889018298141 16.82717226377838 0.0 -0.035897724508089826 0.08508179442467985 0.0
236 1 2.8863705040423007 5.408406881575295 0.0 0.13837409036348683 -0.01736300300759003 0.0
237 2 12.985909952883697 16.076193974443505 0.0 -0.05267947072060086 -0.026577485795082553 0.0
238 2 6.124170130216987 10.145916373958116 0.0 -0.1507073056647313 0.05882173440267929 0.0
239 1 19.65894826301526 10.139648136278966 0.0 0.037276128010457626 -0.11381626966014449 0.0
240 1 9.083332347183374 0.4393498907274426 0.0 0.08494105492212176 -0.02092167124728657 0.0
241 1 6.221040126831013 17.090746023258166 0.0 -0.058791980822505335 0.11120778990691844 0.0
242 2 13.85811453700977 9.0105938460314 0.0 0.08450143590133755 -0.012434188517278804 0.0
243 1 19.207044451858717 18.847370213991493 0.0 0.03056020090300732 0.11872546145056197 0.0
244 2 11.836498815465223 1.7189707752614924 0.0 0.05004316601857934 -0.022445035156103244 0.0
245 2 3.5516826715147904 6.280842264443823 0.0 0.044413326007602796 0.023972880136148424 0.0
246 2 13.901058474826343 12.240342775146269 0.0 0.02130259821751086 0.021519675647621278 0.0
247 1 10.328541307563333 17.44979625165854 0.0 0.0007149416802277635 0.04501436075331584 0.0
248 2 13.956041786559364 5.557802436649951 0.0 0.015185433426317856 -0.0445176292279959 0.0
249 2 5.212376961732611 1.0663162946156535 0.0 -0.04647152795229276 -0.006450137769486213 0.0
250 2 5.167635930565955 4.670769820730661 0.0 0.036810501569578075 -0.03684893395604246 0.0
251 1 12.28552434169911 12.81450592881176 0.0 -0.1197768841207452 -0.033970785698357174 0.0
252 2 5.949198095303004 6.399168217641646 0.0 -0.04231645271051311 -0.020193018198105175 0.0
253 1 7.6498133507353065 2.104446083106892 0.0 0.005840269380343918 0.10518886752477292 0.0
254 1 14.50979588597194 9.89845508025728 0.0 -0.05674344915011084 -0.025290413659887427 0.0
255 1 13.107268303577717 7.031174235693119 0.0 -0.036273601887564004 0.16875915248657591 0.0
256 2 1.0710400851744237 19.47967782249107 0.0 0.005777599680150409 -0.0725451839203242 0.0
257 1 17.126985651243128 18.5796042990956 0.0 -0.0008527340244263051 -0.016796096612329416 0.0
258 2 16.04847577335255 9.552856182249341 0.0 -0.04490100320523515 -0.013985605541909873 0.0
259 2 6.195823280100241 16.017690837268482 0.0 0.04252307095307322 0.08263034476750802 0.0
260 2 9.178181598791454 5.572347049095985 0.0 -0.07411665504798039 0.02019052755279491 0.0
261 2 8.4058394631476 16.158320240774728 0.0 0.07193677950828008 0.05376671408620084 0.0
262 1 7.793723168730728 18.47267512458665 0.0 0.008296526269938685 0.10179654475495321 0.0
263 2 13.058088058868876 8.105550235244436 0.0 -0.12641252378095322 0.011054615838332824 0.0
264 2 10.570804173084788 11.88003177469216 0.0 0.05633031726769773 0.006443457836492982 0.0
265 1 7.104301207943694 8.753574027805058 0.0 0.13430765606444597 -0.05636370362464181 0.0
266 2 15.51885083933543 19.590192752227345 0.0 -0.054626674858635677 -0.03894830759002116 0.0
267 2 5.987882812280011 11.402983332722899 0.0 -0.09213951307813427 0.14048041021662536 0.0
268 1 18.701973333633912 2.517965972854259 0.0 0.04950503512714068 0.10454404945579242 0.0
269 2 8.226770644087575 6.507190573106224 0.0 -0.034170329724543695 0.01831822235369023 0.0
270 2 15.267351777002192 15.783571511483228 0.0 0.011739786430964341 0.060408516374785955 0.0
271 2 7.461125078888984 13.035824612762445 0.0 0.033787169264414135 0.012715404939036598 0.0
272 1 10.442874015851299 3.5446198775232083 0.0 -0.012668614035382608 0.03400025923309595 0.0
273 2 15.367538392522816 17.07006743412905 0.0 0.05213005740190787 0.05249096026626732 0.0
274 2 19.29074003031979 4.062527988933971 0.0 -0.07201959618848595 0.07398304904714481 0.0
275 1 0.7171988361629619 14.46452990365061 0.0 0.0013259716279749403 0.12532778425390015 0.0
276 1 16.84731582055866 11.773387024286935 0.0 -0.057992962646618414 -0.0555583156378118 0.0
277 1 17.374654138519393 2.739462350625833 0.0 -0.10014337150467437 -0.04003256067085223 0.0
278 2 8.834473154142081 18.214587978118036 0.0 0.052506323080324525 -0.02674983116647467 0.0
279 1 4.50265381971318 14.016021163123929 0.0 -0.023437117199186046 0.0015583648719872964 0.0
280 2 0.11896748761693694 6.848268703290109 0.0 -0.0634096899552397 0.05476480936897201 0.0
281 2 8.756623978531582 13.978195321139975 0.0 0.05544110090091433 0.027493947413520795 0.0
282 1 8.97753513889196 17.138742949514796 0.0 0.09013635345770432 -0.029729834429318463 0.0
283 2 14.192124327902137 16.566125066656763 0.0 -0.06707576291075067 -0.06161493873804591 0.0
284 2 13.392361776406531 10.140247099542615 0.0 -0.08231745820347354 0.023246161439819384 0.0
285 2 3.8671904968532558 4.95121642812634 0.0 -0.01720536636828855 -0.010790083852176363 0.0
286 2 8.141837204681588 1.1101070698825783 0.0 0.0485345123602162 -0.06769375124292568 0.0
287 1 17.723543834364072 17.33954348660493 0.0 0.046397794062436964 -0.04544981275868779 0.0
288 1 1.1152953264712915 17.80956409818767 0.0 -0.07085540019230145 0.04117504445791038 0.0
289 1 6.7931315068026965 8.174475152285947 0.0 0.03913952753178701 -0.03370938441153258 0.0
290 1 3.475033460612316 12.283002060391432 0.0 0.1512559505268296 -0.09112624510921125 0.0
291 1 1.954994651161823 18.160903007246713 0.0 0.1984808316012567 0.08990914994020786 0.0
292 2 18.947284975859393 0.16028789566371088 0.0 -0.011685962978837727 0.09886749057383629 0.0
293 1 4.864980835498462 3.5656278556309005 0.0 -0.018086050170055767 0.005841197549372468 0.0
294 1 10.288698554212047 2.887897948995975 0.0 -0.0251188764579912 0.08635587648702864 0.0
295 1 19.612860173701844 12.851926478215647 0.0 -0.11208954587742319 0.03642760787648884 0.0
296 1 10.62289308825192 8.597590835616861 0.0 -0.044545831484112584 0.07167562445807264 0.0
297 1 12.557032086680856 17.201484372535546 0.0 -0.04607517134511704 -0.046017481487225925 0.0
298 1 9.514788437915549 7.982323331041019 0.0 -0.05337995727248185 -0.0676092198711498 0.0
299 2 7.11833513328461 7.1572664378737665 0.0 -0.03388376369251769 0.04847604546056338 0.0
300 2 8.24429528147211 19.516783847578527 0.0 -0.03080712522215529 -0.01701923676630055 0.0
301 2 6.798632804237487 18.006801710192683 0.0 -0.09923701607273408 0.07715092996516787 0.0
302 2 14.841239372514957 13.075232127815697 0.0 0.03183501668862406 -0.028963568808825686 0.0
303 2 15.474779357781916 18.31692682606704 0.0 0.04272351796041201 0.01997015983730258 0.0
304 2 3.083026587243515 1.053235134363541 0.0 0.1608200071066104 -0.05965191852424993 0.0
305 2 16.558338293085004 0.4192342461730278 0.0 -0.042206048022187394 0.007426735533897053 0.0
306 2 8.509140888006481 11.48637396530697 0.0 0.011736107132370752 -0.026587746291777827 0.0
307 2 0.5062913490628398 3.254062746653264 0.0 -0.05137703213248566 0.05794659841598109 0.0
308 1 4.246917017024126 11.521311942356494 0.0 0.007966985339870558 0.038141796703819765 0.0
309 2 1.8446101744697023 11.453363959392055 0.0 0.018488743103592314 -0.0015092191236284198 0.0
310 1 15.897505522667847 13.3390491940867 0.0 -0.11331794229345996 -0.08543114477684781 0.0
311 2 13.0437414364352 11.330839858700763 0.0 -0.03949609624725924 -0.03134768833202335 0.0
312 1 6.26157614067365 4.617761477658797 0.0 0.11842955946698361 0.014382395234634294 0.0
313 1 5.010258771659653 6.974752626139742 0.0 -0.09196464275561533 0.0306125376407628 0.0
314 2 1.5704102994788343 10.140320306327215 0.0 -0.03237768163247007 0.01123196861483913 0.0
315 2 1.0741433304379921 16.683381224024913 0.0 -0.10874966297411491 0.03973682226367509 0.0
316 1 18.03300037162059 2.540151331859722 0.0 0.057261329503836285 0.024853701079905213 0.0
317 2 18.689510611390933 7.325661277949054 0.0 -0.06756832110962341 -0.0934205902284716 0.0
318 2 2.2167572455423956 0.18251342924441108 0.0 -0.04700836246141408 -0.030088862953515698 0.0
319 1 13.777646895732074 7.260607103376891 0.0 0.022335320793783885 -0.016768301985922735 0.0
320 2 13.323231122262907 19.583241330733316 0.0 0.040814703546584744 0.03472299363440809 0.0
321 1 13.599542742553158 6.596929964751578 0.0 0.039602208425312424 -0.059388379832912896 0.0
322 1 6.030368987397805 18.88406493276654 0.0 -0.036280869874747115 0.12456180920680551 0.0
323 1 2.664165124488805 7.365996940521772 0.0 0.09621466849358658 0.12492884364873742 0.0