ITEM: TIMESTEP
0
ITEM: NUMBER OF ATOMS
400
ITEM: BOX BOUNDS xy xz yz pp pp pp
0.0 19.7609 0.0
0.0 19.7609 0.0
0.0 10.0 0.0
ITEM: ATOMS id type x y z vx vy vz
1 1 4.0366407998123295 14.680961885995778 0.0 0.10130243989979225 -0.005290904274701315 0.0
2 2 2.285449504544269 14.638637324328972 0.0 0.067603370262411 0.10818641230639761 0.0
3 1 13.318439904529566 8.584830902068928 0.0 -0.026578294630580885 0.026455531986663366 0.0
4 1 14.00149941869044 7.4639253568531245 0.0 0.13703542395889945 0.003980246076727907 0.0
5 1 5.227519494000715 18.5400197830029 0.0 -0.013226421651955986 -0.10663158567497978 0.0
6 2 7.800790230439172 5.206033966380311 0.0 0.03140136885145881 -0.04542367517852601 0.0
7 2 10.75463459639245 12.98725163139291 0.0 -0.007353435556665136 0.11443567239662158 0.0
8 1 1.4562138238085982 17.589552873506364 0.0 -0.06512490536368173 0.03720326414203072 0.0
9 2 17.303285002741696 8.246267382851054 0.0 0.09970225091408262 0.04700425300315283 0.0
10 1 5.0191838839531435 15.353415181967359 0.0 0.14504144286883625 -0.10920055263927922 0.0
11 2 0.7051905967461353 2.429954395214758 0.0 -0.026596577415143884 0.007191473330023295 0.0
12 1 9.480485563313612 19.490470928672607 0.0 0.02591763910310781 0.04973741485326315 0.0
13 2 12.978144399662856 15.751467386443377 0.0 -0.030338438893955072 -0.07892878418311555 0.0
14 2 2.880580217710545 9.059021193301595 0.0 0.03185146332551856 0.00459872065244531 0.0
15 2 8.170367479545886 15.766345985852789 0.0 0.07399928728473221 0.0352740078980403 0.0
16 1 8.413910607889818 18.177281904553947 0.0 0.02687317028416396 -0.04627792410220287 0.0
17 1 15.236627200668773 13.539503633127232 0.0 0.01704763377711501 -0.0205181859984004 0.0
18 2 4.656918718906649 4.6003150699194775 0.0 -0.038987602675818994 0.014970225041766783 0.0
19 1 16.716992092347247 6.7293628155120535 0.0 -0.021054444300206206 -0.06508628139255875 0.0
20 1 17.10745521996057 3.4337237718828444 0.0 0.15016584033414154 0.049941471102723865 0.0
21 1 16.631664415784073 15.69577913426529 0.0 -0.12656931105488625 -0.007629844117104098 0.0
22 2 18.066865093026717 9.29960775188703 0.0 0.017981646356194602 0.03618408424204633 0.0
23 1 15.838933290499659 19.413583139843244 0.0 0.06681896555927096 0.010186129767061168 0.0
24 1 18.260130943826173 11.490759466496248 0.0 -0.06328341193224889 -0.11644760801553009 0.0
25 1 8.543553020182141 10.048220156139294 0.0 -0.1336348987008858 0.03331115552137275 0.0
26 1 3.3243370503044765 18.4082520293207 0.0 0.06587952363468436 0.10408945067412641 0.0
27 1 1.6765928259367104 3.069701942518073 0.0 -0.05599916453963933 -0.006230537562589237 0.0
28 1 6.505649689639869 14.019481325728508 0.0 -0.017202654191100977 -0.05542063960067867 0.0
29 2 13.262864243325883 13.279498233828646 0.0 0.05204051819457917 -0.02816241729963123 0.0
30 1 9.632755858489537 18.81468444437949 0.0 -0.09119463661574109 0.016845170244515456 0.0
31 1 15.680433466939688 14.779450694139298 0.0 0.0023175143336689875 0.06557117359848069 0.0
32 2 3.6379962663477534 6.951325112310323 0.0 0.0590130907699227 -0.0023982753106556237 0.0
33 1 12.751998345942454 5.642802991752446 0.0 0.022851313182277944 0.15741765359833795 0.0
34 1 11.638256571248657 13.676674091613378 0.0 -0.040515825868321954 -0.0070109871227169865 0.0
35 1 2.568549319003452 5.275463445904228 0.0 -0.07332682517436108 0.06405828377633241 0.0
36 2 9.912404555382663 11.89431518919795 0.0 -0.039412775553503025 0.002063246036666866 0.0
37 1 12.822975919654416 19.461008274229577 0.0 -0.035759577562985055 0.09531998935736717 0.0
38 2 13.421693533251794 0.5910832720546594 0.0 0.04145037105880912 0.05212438480530291 0.0
39 2 3.3524681347527485 19.54856975210405 0.0 0.0015405614088123507 0.029274798643181225 0.0
40 1 13.47358279364131 5.098139525047913 0.0 0.06120319509297328 0.037707501885922076 0.0
41 2 10.677791250259865 15.098328741472656 0.0 -0.04005299152235091 0.10260890787785348 0.0
42 1 3.041554186822008 15.44512914093341 0.0 -0.01392288772531214 -0.08016161211306783 0.0
43 1 19.455652308011263 4.9522574386334615 0.0 0.02301615519529088 -0.0310686037633947 0.0
44 2 9.71345785350994 7.305497224947776 0.0 0.09121908836751325 0.03801393779907187 0.0
45 1 16.991695193743 18.908869616523337 0.0 -0.0613523751590393 0.00731826464738387 0.0
46 1 2.0985420730915303 9.886774208118414 0.0 0.0321528452407875 0.014763550337889451 0.0
47 2 9.106284357429766 16.61680437336505 0.0 -0.00990796888715317 0.09511899453039263 0.0
48 2 14.941849652645184 17.317889551577938 0.0 -0.016711072001594822 -0.024130539768731685 0.0
49 1 16.126751239591922 7.0483449093752455 0.0 0.09261503102490248 0.07802676549606195 0.0
50 2 1.458302481283138 0.08096184607204263 0.0 0.03142285860674088 0.029141238826676456 0.0
51 1 14.99825818660566 19.706830596077094 0.0 -0.07345402339375778 0.1131878309340238 0.0
52 2 10.95854847389899 4.047261002224259 0.0 -0.049028011348934745 0.03522432572989984 0.0
53 2 13.089984586949809 6.850333865204787 0.0 -0.01565430143336684 -0.07515917327035329 0.0
54 1 3.9547836043605455 18.629264102537793 0.0 -0.0759577650665006 0.01438970429895071 0.0
55 1 0.18278341928458003 10.851831206926738 0.0 -0.014329562995677433 -0.03988137094052134 0.0
56 1 18.87023507273329 10.2274199694224 0.0 0.029645090289775786 0.057217929719300765 0.0
57 1 14.1074665677577 15.810583860443515 0.0 0.16353347277307487 0.05191398099175578 0.0
58 2 11.71168383952504 5.187454273670135 0.0 0.005772740978739023 0.03974611336434572 0.0
59 2 18.861191883441677 17.40191806999311 0.0 -0.06506698042897222 0.010855893131616992 0.0
60 1 15.838405056055302 3.5227776273535083 0.0 0.11649050842591595 0.0958476728061081 0.0
61 2 10.332910844068076 16.32161451260144 0.0 -0.09456677248055244 -0.014952843864481128 0.0
62 1 6.94492517617487 12.104048023808199 0.0 -0.057061824776783475 0.015877253393723527 0.0
63 1 7.611079271046772 11.877534379548175 0.0 0.039354449953148275 0.09902456370977396 0.0
64 2 15.286931930644585 2.590591547626824 0.0 -0.04533665779980544 -0.03173283706829635 0.0
65 1 17.396452630391686 0.616811588590644 0.0 -0.056946231414204955 -0.07634604988017826 0.0
66 2 11.239334358082905 11.820161839772211 0.0 0.02542330064846967 -0.07938621090862731 0.0
67 1 0.2808927722094189 0.7550000180124832 0.0 0.21859398829086646 -0.06792312043123491 0.0
68 2 14.57281767821653 5.257667513012596 0.0 0.018550628789007203 -0.0437538370702354 0.0
69 2 5.071335428365589 8.742606422366435 0.0 0.038803909174644956 -0.037295140342741624 0.0
70 1 13.51333688149876 7.924287390330945 0.0 -0.08793559542299192 -0.15091189164261432 0.0
71 1 15.073822208705515 0.633693304750082 0.0 0.18317376155548692 0.012309058364715355 0.0
72 1 19.18767428839733 2.569786484687284 0.0 0.003459600564693819 0.002514141352472474 0.0
73 1 6.2048087594341945 15.249298637972673 0.0 -0.03770798826845992 -0.06590765489074583 0.0
74 1 9.62499764525186 12.966326264316713 0.0 0.0880664129895044 -0.06484296731382723 0.0
75 2 13.684434293473958 16.80620228411767 0.0 0.027950328401802366 0.0039006782056849555 0.0
76 1 8.524938666798596 9.38905871634271 0.0 0.03366207918836814 -0.0723788252109225 0.0
77 1 19.079453382940784 4.353821061056311 0.0 0.09966187109105144 -0.051106015073689316 0.0
78 2 4.4580280991935295 16.332186016076648 0.0 -0.08220324171560743 0.027561918428102777 0.0
79 1 0.9080550815924967 15.758243156167586 0.0 0.09254324698783126 -0.005930753027503034 0.0
80 2 7.224932215923321 14.86801039493946 0.0 0.009639564200499455 0.039482661036613693 0.0
81 1 4.779295509010166 14.692785568423822 0.0 -0.17336851263509 0.07559383126678346 0.0
82 2 0.8061193284248251 3.70333471851988 0.0 0.006168007621775783 -0.010693042496455082 0.0
83 1 16.389490796172467 2.3695744825042993 0.0 -0.03282821068886377 -0.008332329015422508 0.0
84 2 5.142130840527961 7.482522464633875 0.0 0.03256419053953651 -0.07677732657320849 0.0
85 1 14.640041481459452 15.311728266178758 0.0 -0.06800472094129757 0.11926691428377725 0.0
86 1 6.1461641964667315 14.584466498675749 0.0 -0.0335402466744349 0.08986710214055915 0.0
87 1 9.900471633228827 6.182149877057891 0.0 -0.23464817283668948 -0.11749384377019101 0.0
88 2 18.544860821558725 8.151282790868917 0.0 -0.07881303380998392 0.030558691212806664 0.0
89 1 11.09738382674024 14.07443854009003 0.0 0.006836252181451336 -0.08407943862787876 0.0
90 2 1.9768545076010025 4.284690523243772 0.0 -0.052843231669029996 -0.011176821250677534 0.0
91 2 11.913410955974678 14.812211015811622 0.0 0.06748811488041548 -0.031127306838103677 0.0
92 1 1.9125866384663441 5.397248481292719 0.0 0.03388782729041721 -0.04252631726435749 0.0
93 1 8.111320909887976 8.853619810022286 0.0 0.14035825848070113 -0.07036098984073139 0.0
94 1 6.87123061214316 12.78694991730107 0.0 0.04274021592096858 -0.006080824494062026 0.0
95 2 5.2132301466732915 11.295391489867626 0.0 0.11147027249487367 0.04188634273462201 0.0
96 2 15.400561856718316 9.375630796654555 0.0 -0.02430044039163867 -0.048135228496445796 0.0
97 1 7.149928779815644 18.128113246915923 0.0 -0.13884919560494552 0.15305493678578935 0.0
98 2 0.9718560576521884 10.09140699517058 0.0 0.050025883297213046 0.04038330870925828 0.0
99 1 10.407568477527715 18.70586047764911 0.0 -0.027084882661980978 0.05469838368142146 0.0
100 1 6.692780294288508 5.040853291053346 0.0 -0.026672524910506472 -0.05000084522714063 0.0
101 1 15.009280700933854 14.705474596332435 0.0 0.0941624280841056 0.06965121118420486 0.0
102 1 15.907545813738976 13.601027587833864 0.0 -0.05522076775280156 -0.05039520335163498 0.0
103 1 0.8068761147011573 6.104952401431213 0.0 0.055555122702953715 0.03622493374123031 0.0
104 2 13.974798291806954 2.645378690982558 0.0 -0.08498566309978878 0.02758300376780014 0.0
105 1 16.490054556585406 3.6968115574770715 0.0 0.01706735817171174 0.03318109256094985 0.0
106 1 17.600361636493293 11.526939410589504 0.0 0.006610537623523858 0.11611197475930683 0.0
107 1 17.850434401860227 10.915079300878517 0.0 0.0013568642967652714 -0.06331957710288993 0.0
108 2 0.8536029711476261 4.991012590196128 0.0 -0.02189078758512285 0.02195107444989463 0.0
109 1 0.07037548429350689 5.782392150229446 0.0 -0.06388066775706402 -0.01791373450339727 0.0
110 2 7.740155665274212 2.97371679106545 0.0 0.05123064092979854 -0.025315577607667845 0.0
111 1 9.539971489298525 10.83797884849112 0.0 0.015560523512362001 0.11714373369986983 0.0
112 1 1.138720355257187 16.44053252613973 0.0 0.06703646200982763 -0.1597381159222391 0.0
113 1 4.573789974067569 18.391051579908922 0.0 0.09190103057012709 -0.1158074135227961 0.0
114 1 1.3830135231794578 6.557910344139467 0.0 0.08377988022649861 -0.0021334820132741204 0.0
115 1 15.613472851912409 0.2716565420266111 0.0 0.011900622930889438 -0.0575434288895003 0.0
116 2 0.20570705342907766 19.45003755194641 0.0 0.001498210708589822 -0.01761646086979798 0.0
117 2 8.149665707991876 6.41964779385937 0.0 -0.0245187635470316 0.026034667359114506 0.0
118 1 18.53347513065505 5.552426549833674 0.0 0.10415108324213408 -0.08731353110913131 0.0
119 1 9.833360918460626 9.343918061076362 0.0 -0.03119510088093621 0.013128389412321582 0.0
120 2 8.607413965136324 12.445390681415248 0.0 -0.0641023890025498 -0.040271969227145314 0.0
121 2 18.969086422939505 18.70169786981708 0.0 0.06676624493017491 -0.0028092364119275165 0.0
122 1 19.734556860833614 4.35414938384016 0.0 0.004510159482258937 0.021596900697902294 0.0
123 2 7.115021790462177 8.469350866195038 0.0 -0.018617509755973625 -0.061187446223060556 0.0
124 2 18.08209615319843 3.963594036573389 0.0 0.05355656095843992 0.06825084568383062 0.0
125 2 15.858670664899305 1.3778137147270768 0.0 0.007204056892588205 0.00845500738120702 0.0
126 2 4.581680554094668 12.425847661721496 0.0 0.06139268223222945 -0.09626791807459263 0.0
127 2 12.22769457019862 4.041973286442844 0.0 0.05159433285419563 -0.07869073213083892 0.0
128 2 6.456120626992153 3.033637048114192 0.0 0.01872757577409486 0.07103772666914818 0.0
129 2 7.628161764348488 0.6852295608733813 0.0 0.06938700309514076 0.057741847536407404 0.0
130 1 16.56894919336855 16.99401687543409 0.0 0.05802265256239354 0.09632400037398293 0.0
131 1 15.199594167478363 3.7041941322138903 0.0 0.08673182369558231 0.05575827397223922 0.0
132 1 18.952942206847634 0.11214862912364465 0.0 0.04559154784044692 0.18553813893985888 0.0
133 2 18.62740579784116 16.13334861135479 0.0 -0.020664543061475162 -0.02575731389506121 0.0
134 2 5.818385035595056 12.493302660286185 0.0 0.05366529748331121 0.0800912463938931 0.0
135 2 11.142010387647998 19.67573348653541 0.0 0.029267279078290746 0.026030146842775673 0.0
136 1 1.4699911931316658 5.899064316142353 0.0 -0.03584040310907727 -0.1747812535864695 0.0
137 2 6.961681294319457 16.118024599404563 0.0 0.02658753983628998 0.018612442682332975 0.0
138 1 1.8968341962814936 8.617238483911544 0.0 -0.11845782323672258 -0.015331226302641436 0.0
139 1 10.113417532485226 19.314202779046063 0.0 -0.011340248974712374 -0.08718675048400522 0.0
140 2 15.847776983403806 5.269948842815779 0.0 0.07868954688431894 0.030469737493251648 0.0
141 2 9.325172255511866 15.190815125943768 0.0 -0.04192463229452947 -0.024212244707112276 0.0
142 2 8.796714850723685 13.71127680400496 0.0 0.11727554653993756 -0.07812130163476606 0.0
143 1 12.278000451204138 6.1362825289372545 0.0 0.03481440585213295 -0.08705633954689615 0.0
144 1 19.47808917300982 1.9433970768020512 0.0 -0.04411801595234021 0.09821300585251068 0.0
145 1 12.824851256635478 4.959033609608497 0.0 -0.06561297142708745 -0.004133189569841244 0.0
146 2 11.500643293597689 2.8979290726745455 0.0 0.09805539083260836 -0.015382862499461736 0.0
147 2 10.261209441553756 2.893181666205481 0.0 0.05399077506808475 -0.025886865312140503 0.0
148 2 9.080707193183615 5.240949150678838 0.0 0.05168839421934391 0.05662899793274712 0.0
149 2 8.43271983867056 4.093188876759981 0.0 -0.016588627871398674 0.011978591246291099 0.0
150 2 13.927883583943004 18.01520473400162 0.0 -0.05394287747202655 -0.10192462889816538 0.0
151 2 13.201417771217537 10.090609802751453 0.0 0.043238392762079955 -0.011745006950274115 0.0
152 1 12.012914591083778 6.809706729104452 0.0 -0.014424839873436063 0.06917284219145568 0.0
153 2 13.547842064777395 3.9911729590990146 0.0 0.03597351774301146 0.06201594531925229 0.0
154 2 10.361159831316943 5.183787383417509 0.0 0.03613696802778253 0.041053413519612704 0.0
155 1 0.16789719842906145 7.1099044688928235 0.0 -0.016547098571504795 -0.025509585869939642 0.0
156 1 17.53816169038831 16.375160876916095 0.0 -0.05863469283036334 0.05135154997047656 0.0
157 2 12.760121992819737 2.9298153597045293 0.0 -0.08956724920439021 -0.06705925600956557 0.0
158 2 18.035439434601756 2.711046740639269 0.0 -0.024829314013838342 0.006117198543833936 0.0
159 1 0.19720760249606678 6.434881918867414 0.0 -0.14392864001069405 0.03731335688787693 0.0
160 1 0.7616088405815138 6.786188413865035 0.0 -0.016389193445642124 0.009621688470389696 0.0
161 2 9.689508799868216 4.064397327062723 0.0 -0.015616308164683209 -0.02934131385424267 0.0
162 1 16.672970619944262 7.396081150136812 0.0 0.03683273424038516 -0.010291230720764783 0.0
163 2 3.279947952442835 12.616527195723782 0.0 -0.02171387263866366 0.03697422395479724 0.0
164 1 16.27516250432833 0.25617141329897836 0.0 0.05429698869763268 0.01092210466550686 0.0
165 2 4.615847036914135 19.486674964184875 0.0 0.010774066842600061 -0.07949970212978763 0.0
166 1 1.2836261415923491 15.181248669631678 0.0 -0.06566198210803888 -0.01472523922855824 0.0
167 2 13.17136174581606 14.486019434755908 0.0 -0.013659432972771265 0.03977597946314198 0.0
168 1 16.022857397346733 17.386822485846324 0.0 0.039675044980406624 -0.11913253711427113 0.0
169 1 19.282617531456925 11.996511918837996 0.0 -0.025188086644145492 0.025386138710913414 0.0
170 1 9.190672301566474 9.612415542864571 0.0 -0.039677931126167874 0.00473994725705325 0.0
171 1 16.077117914325694 10.25567903540454 0.0 -0.028584486251236767 0.04570833493716833 0.0
172 1 1.0147287180536673 17.09286299452217 0.0 -0.04738203309917854 0.021124806196389168 0.0
173 2 8.307371445737024 1.8228727710436101 0.0 0.03267350981546633 0.04403540054727009 0.0
174 1 12.296120655721502 13.781859324007147 0.0 0.11236501060976127 0.07658688352109978 0.0
175 2 11.180457976720609 17.266098751226586 0.0 0.05181108698573971 -0.019785560888437036 0.0
176 2 10.370537182836825 8.386406853007474 0.0 0.00451618930668328 0.0418301746674023 0.0
177 1 14.624437668404914 6.3359932383349475 0.0 -0.06880721160014713 -0.09095659224105294 0.0
178 1 10.49744590264245 6.533862708283601 0.0 -0.17472636368377142 -0.25315567374376974 0.0
179 2 17.62909782914353 15.276689094625546 0.0 0.07242698107693937 -0.027093501452014376 0.0
180 2 7.134765354463798 19.276581215189925 0.0 0.19668368279535683 0.1379880276604169 0.0
181 1 3.7261934347662495 15.496303899068629 0.0 -0.030624730997129094 0.08767490505222417 0.0
182 2 13.122110664630288 1.752726281566933 0.0 -0.04228057106016075 -0.05414479735400262 0.0
183 1 9.780223006494355 10.012616192738431 0.0 -0.08847911068747227 -0.08379456231000598 0.0
184 1 14.257140853105605 9.583636328138345 0.0 -0.0348083088814098 0.028171329257977877 0.0
185 1 14.654915078539355 4.173205805326301 0.0 0.08320056361338317 0.015261418157634935 0.0
186 1 11.455982248255188 8.55110258261442 0.0 0.01628022207356707 -0.018265607135583794 0.0
187 1 18.629144299581792 12.04537166899512 0.0 -0.0596600462279674 0.15941042459292507 0.0
188 1 18.96318741594772 3.2498108563624872 0.0 -0.1110958364711781 0.025541875193391753 0.0
189 2 14.445807234923278 1.5031041650721981 0.0 -0.04384379794916501 -0.003565119165825177 0.0
190 1 17.957343181260566 12.146228301004374 0.0 -0.08778078484433734 0.014012665035659191 0.0
191 2 9.994547720012234 14.031116303248156 0.0 -0.012748431711153141 -0.04280247512858233 0.0
192 2 16.756089857893777 9.371465926709476 0.0 -0.032291477164616736 0.03566556911974681 0.0
193 1 15.311920395411027 15.334340891042595 0.0 0.06320098374200867 0.03263902447492444 0.0
194 1 19.436102235788027 14.002955468795895 0.0 0.025244646242200557 0.037723936094299956 0.0
195 2 3.6158232739143656 5.655610478799984 0.0 -0.0747424858805655 -0.03187000354281831 0.0
196 1 16.858509427701033 16.35304015699171 0.0 -0.12440428652252673 0.07713408175499817 0.0
197 1 18.701840655990946 0.7667210516848033 0.0 0.11033295256142893 -0.04011309703779872 0.0
198 2 5.421208283080201 13.763195932226907 0.0 0.0098305770754866 0.04719008232295851 0.0
199 2 2.329890262756129 18.864843440223392 0.0 -0.01603266263238115 0.07575454377657603 0.0
200 1 16.771479667643245 10.457926645052178 0.0 -0.004840595687221413 0.0373999265144642 0.0
201 2 1.2264317053999285 1.2983130432262626 0.0 0.033331426950745494 0.012459965844717832 0.0
202 2 5.883353924311829 19.41505921758623 0.0 0.11131597517145758 -0.19831058789329617 0.0
203 2 10.930685557351003 9.544810165991949 0.0 0.007521829474378638 -0.017061133744793407 0.0
204 1 13.989126412204334 15.161317646788321 0.0 -0.15890256180684836 0.005232343630399569 0.0
205 2 5.1354391518040305 0.839440634358644 0.0 0.07037783806465178 -0.06470907687481212 0.0
206 1 19.71067190780978 11.483607875838466 0.0 -0.04696388142460876 -0.06253471391819788 0.0
207 1 16.946924702705594 0.11145430371880108 0.0 -0.06572094197887102 -0.025416969400722415 0.0
208 2 17.30506556010319 1.708364554361932 0.0 -0.0362238402780466 -0.003526017003916747 0.0
209 1 19.19866317364118 5.55824418477911 0.0 -0.062160238548271386 0.07701712367996197 0.0
210 1 19.6224177267301 3.1072581091068114 0.0 -0.004691400825161755 0.1561098972909968 0.0
211 1 18.81332672634922 1.9336812088205886 0.0 0.12550636556385708 0.05601427553945709 0.0
212 1 14.626573105607957 16.22588919971402 0.0 0.03914059584985264 0.06693406869509977 0.0
213 2 3.282031957157125 4.431519921061551 0.0 -0.0061631658978887945 0.0076326406580463114 0.0
214 1 17.220804433952065 16.99370060507524 0.0 0.029617410482895422 -0.023616237664976076 0.0
215 1 4.389387517544401 14.107805827634511 0.0 0.01214950056356606 0.15575735463683293 0.0
216 1 14.335824673297202 14.574169814034807 0.0 -0.08223719328944162 -0.07575176504985055 0.0
217 1 12.826748999179612 11.112031488078017 0.0 -0.05498124018327091 0.14753899169739165 0.0
218 1 5.863643644086301 18.288956700612637 0.0 -0.06292044560170455 0.014657994381976486 0.0
219 1 19.118254788960964 9.589576622533377 0.0 -0.025740597125371262 -0.10038770413746832 0.0
220 1 14.153809739174905 6.807600819815026 0.0 0.11843481100594896 0.024784464114883907 0.0
221 2 4.064060024629947 9.460139211974525 0.0 -0.07759671935002525 0.08363320926911132 0.0
222 2 17.700624662396336 18.037908836353626 0.0 0.049487802173385685 -0.03459800163142293 0.0
223 1 9.240605877366857 6.304593813649412 0.0 0.052913445276720227 0.02175115915406187 0.0
224 1 14.14837842116571 13.918398511907085 0.0 -0.0763622376804309 0.04799228343815932 0.0
225 1 19.36573428811727 8.944651707664695 0.0 0.017195388165178162 0.06853708948522484 0.0
226 1 3.4081302273812466 14.907331000942643 0.0 -0.023508198518783583 -0.023897334316822793 0.0
227 1 16.748523896682173 0.7536731793092337 0.0 0.02953176648125535 0.021618818593617587 0.0
228 1 14.660808994939156 10.175353110729722 0.0 -0.050160560152533375 0.014010968978996575 0.0
229 2 18.889826228709943 6.610805927054733 0.0 0.06503615849233864 0.08354742356230173 0.0
230 1 14.849620824095037 11.749463519108016 0.0 0.00139473517164034 0.09276041500187755 0.0
231 1 19.33624490578114 13.2874344089638 0.0 -0.022354404637146243 0.08061280665528102 0.0
232 2 0.05844593148588568 16.521485604469557 0.0 -0.05748301275662017 0.01593385933229573 0.0
233 2 0.23365966679399053 17.836230763502858 0.0 -0.015938979231652363 0.04255336000860649 0.0
234 1 7.503367617130993 12.53957614911336 0.0 -0.12009241298000091 -0.06794533282747531 0.0
235 1 16.148742748995385 18.787245098911956 0.0 0.07210830960409009 -0.18985664571919464 0.0
236 1 11.138416073697787 6.7393733750329154 0.0 -0.11715487566075479 -0.012114544418958872 0.0
237 2 3.937021277645878 17.49601488158875 0.0 -0.20668463843003387 0.051124951729326705 0.0
238 2 3.7970265459085746 11.476112891633743 0.0 0.08085926446450356 -0.01576095120368203 0.0
239 1 18.03625744480336 5.056274624657445 0.0 0.04815146897555321 0.012016505856089715 0.0
240 1 13.684432702863358 9.144469712331372 0.0 -0.07442651777103924 -0.07813807874078281 0.0
241 1 15.300291388968862 4.360086953477192 0.0 -0.009862057827536456 -0.013196493180036767 0.0
242 2 1.3969940686347566 7.654945634012453 0.0 -0.14413578110261493 -0.05748062740489584 0.0
243 1 0.6214978174157675 15.098650404643397 0.0 0.06770670915268857 0.02428356891110446 0.0
244 2 6.441997339513766 17.293963411598387 0.0 -0.08958410960574621 0.132256195071008 0.0
245 2 17.94719627339817 19.438499877160474 0.0 0.002920325607379682 -0.01868326349491321 0.0
246 2 5.230619418598313 3.267965152225873 0.0 0.030516260740431397 -0.01923241784267122 0.0
247 1 16.029238391680877 18.055337014393416 0.0 0.10342910183308651 -0.051795121875197296 0.0
248 2 18.341092125654598 13.76523676645479 0.0 0.000932051695354074 0.04164244256988062 0.0
249 2 5.711137139622515 16.21254055942004 0.0 -0.11960162230327952 0.007304567402429121 0.0
250 2 6.86992382227034 6.1120118495389475 0.0 -0.03581286027061273 0.005104898852076392 0.0
251 1 15.275036318743512 6.194036881587515 0.0 -0.13524951370297336 -0.06972005819459998 0.0
252 2 2.7556921611138496 3.2616774761208083 0.0 0.027593257939561612 -0.002932625340726985 0.0
253 1 14.480225914953214 0.39499220251911166 0.0 -0.0779979568027943 -0.03202766782767052 0.0
254 1 13.967109932419868 6.168767322970889 0.0 -0.005386933969687496 0.0701183343994965 0.0
255 1 9.165494163756623 10.280775138633427 0.0 -0.008767641712384158 0.06639851528867226 0.0
256 2 3.8464145370413148 0.9341195590277896 0.0 0.017018627756130153 -0.0166184532840928 0.0
257 1 0.18338189877080746 13.586044449034642 0.0 -0.00636670798264307 -0.014303788864431658 0.0
258 2 13.934821747125513 19.223372385498795 0.0 0.003941833756742833 0.03544223991089919 0.0
259 2 10.606229857369765 10.740086479797757 0.0 0.03313069517413251 -0.058382384025411495 0.0
260 2 17.616116036430885 6.103542032736113 0.0 0.008223388440057778 0.03315083495308408 0.0
261 2 6.366702007988946 0.8362314249462695 0.0 0.06904534592478408 -0.11931640300255503 0.0
262 1 6.0288482981835045 8.20121129768222 0.0 -0.01754820642869986 0.09506638991888754 0.0
263 2 12.403636440594548 7.914767631753101 0.0 0.08871654406270991 -0.03841526529000306 0.0
264 2 2.542806808233351 0.8496910197763924 0.0 -0.04930001096988499 -0.028474083243581378 0.0
265 1 15.483576801370472 14.157259152430946 0.0 0.04876148116469558 -0.056406463793529635 0.0
266 2 2.5625044588191312 17.593014345642263 0.0 -0.051324311803460455 0.009771293081830553 0.0
267 2 0.4196312400242672 12.527857203161277 0.0 -0.050840273003601444 0.02610493151085314 0.0
268 1 9.066519940482172 18.368142082567132 0.0 0.0355108582446549 -0.06588145940121037 0.0
269 2 13.326329917769902 12.070877500323418 0.0 -0.055794699350085394 0.04400664447756868 0.0
270 2 16.110093567916763 11.34535077916539 0.0 -0.0024161994257897368 -0.09742966236154867 0.0
271 2 14.418482992693283 12.822388448842338 0.0 0.01962209183968746 -0.054998228606018836 0.0
272 1 15.067900893716342 11.095671610112834 0.0 -0.15901015330246013 -0.05304735347013123 0.0
273 2 18.81974247483004 14.898242919363016 0.0 0.02312454860086478 0.053281478573450315 0.0
274 2 3.2931634018696783 13.851067751591357 0.0 0.01623526321176461 -0.052175456978997135 0.0
275 1 4.553980631162382 1.763678548640942 0.0 -0.09764076732169767 0.07487081158190495 0.0
276 1 16.52924937796063 13.311963940208035 0.0 -0.08465912554559639 -0.1163079510370618 0.0
277 1 8.857508466756189 17.682791941112903 0.0 0.10749988942506966 -0.0701702450614882 0.0
278 2 12.16785441106504 0.7410141447197922 0.0 -0.043989774405335705 0.05084902688401189 0.0
279 1 17.283695704111487 7.135082860450182 0.0 0.002929977021924478 -0.006511959658146276 0.0
280 2 4.000289648283417 3.3882916131820897 0.0 -0.00012609033114660662 -0.10874064733050622 0.0
281 2 2.5832552177995103 11.480233976671633 0.0 -0.07835523130783739 -0.018700304884636025 0.0
282 1 4.272026173317737 10.527611123022368 0.0 0.07583564440038645 -0.10426263724248842 0.0
283 2 10.149957549488228 0.6631276498118057 0.0 -0.0320306644075372 -0.06099092857679921 0.0
284 2 1.5595075891693744 12.170010983940557 0.0 -0.028528439792603614 -0.09100375086976809 0.0
285 2 16.687752847743262 14.391141620748593 0.0 0.07011448589405544 0.06029375298084345 0.0
286 2 1.1366192254060796 18.63137528148366 0.0 0.05242062648214159 0.042711881598995804 0.0
287 1 19.069889380453773 12.644379020881082 0.0 -0.09899625789352315 -0.10877374204259196 0.0
288 1 17.878983715421548 16.94744345455303 0.0 -0.013231356347445152 -0.04991194014803141 0.0
289 1 4.3078980296604925 13.450585092588948 0.0 0.0950556335591179 0.04722489797082436 0.0
290 1 16.53284267003948 6.085727224049615 0.0 0.10042269091641623 0.09477111041592064 0.0
291 1 5.83644466148286 6.600622523433435 0.0 -0.04780342382856481 0.02007394401804226 0.0
292 2 12.358204895256161 9.204046891831597 0.0 0.06409771433411122 -0.08086094924417508 0.0
293 1 19.269289682056428 10.817801066798545 0.0 0.012812921651793882 0.016755941899484948 0.0
294 1 16.646986854669287 18.34023706224912 0.0 0.012156422096918527 0.0011376501681118034 0.0
295 1 19.40986193830917 3.7572339255434155 0.0 0.040777791752859754 0.0442331897089221 0.0
296 1 11.304949220504623 7.8854425916677275 0.0 0.009683152478950107 -0.02347955840861279 0.0
297 1 6.520686580145406 18.379862750818734 0.0 -0.1025063608434919 0.15066521908749297 0.0
298 1 17.461591237870227 10.306827702097404 0.0 0.00960932323805037 -0.023560820005341414 0.0
299 2 11.47287631035077 18.47894772552805 0.0 0.023011094469364873 -0.013588187762875067 0.0
300 2 9.961814548812928 17.705527675578896 0.0 0.02943979806033695 -0.029029327828728718 0.0
301 2 8.49410715892513 11.182963611012678 0.0 0.031070194310739912 0.013821117780656925 0.0
302 2 8.9980749921652 2.9424286537307633 0.0 0.040857543724800785 -0.0017842296028469668 0.0
303 2 15.722429614244906 16.337348147719588 0.0 -0.026936799046428796 0.015876880398999184 0.0
304 2 11.636406014694943 16.059857414461366 0.0 -0.03609948617790068 0.017230777580618514 0.0
305 2 15.992688965834553 8.243075720017107 0.0 0.0616203283832673 0.040334678617804855 0.0
306 2 15.094984301393223 7.320629469782495 0.0 -0.02536901434014386 0.060061291975173244 0.0
307 2 1.1239001238191637 14.100889437205105 0.0 -0.012682379720420892 0.0006692420588136275 0.0
308 1 1.6676657987342967 16.93838128896507 0.0 0.037237504479106294 0.11620488333294947 0.0
309 2 16.869638326912124 12.293164069461396 0.0 -0.04281488168537426 0.07721986338853702 0.0
310 1 1.988338002488429 10.565295455224362 0.0 -0.10699203566563971 -0.03355922596273309 0.0
311 2 3.495563215561696 2.166519051140457 0.0 -0.027751919221070065 -0.014025398692612788 0.0
312 1 4.357125541521458 15.25127274351178 0.0 0.04261952533500475 -0.11527790020224246 0.0
313 1 10.841779879130534 7.356105803324408 0.0 0.041958339195403434 0.10588190989487856 0.0
314 2 2.071194428328393 15.916178984157815 0.0 -0.012730073408332793 -0.08720605795402453 0.0
315 2 14.506362245853353 8.444140270700707 0.0 -0.017106306364403273 -0.006450646554436252 0.0
316 1 16.502603624433107 19.369686784240596 0.0 -0.09931428382877833 0.023815994129451245 0.0
317 2 7.455910285785544 9.74161263847532 0.0 0.08795483851543605 0.018496850656311146 0.0
318 2 8.892483847790157 0.678684153146483 0.0 0.05125884023879356 0.06100913611343033 0.0
319 1 15.923706227851389 6.406700090484383 0.0 -0.09340461554498516 0.009640373669250142 0.0
320 2 7.838253712814265 17.21271923554408 0.0 -0.07656951084867612 -0.009597827225624205 0.0
321 1 8.298211037453546 14.672890868212015 0.0 0.13562996781496395 -0.09424651024384191 0.0
322 1 4.5544845607617175 2.423580680455875 0.0 -0.012305850437313907 0.04473621985438349 0.0
323 1 10.986718032453249 6.065578531887607 0.0 -0.012435344347036425 -0.03740958290710744 0.0