ITEM: TIMESTEP
0
ITEM: NUMBER OF ATOMS
400
ITEM: BOX BOUNDS xy xz yz pp pp pp
0.0 19.7609 0.0
0.0 19.7609 0.0
0.0 10.0 0.0
ITEM: ATOMS id type x y z vx vy vz
1 1 0.26839996135274496 18.448455479021266 0.0 0.07560522771766895 -0.024042065244451006 0.0
2 2 14.010977509236428 10.01823792383874 0.0 -0.07580419235317634 -0.03008288573566973 0.0
3 1 4.445854599814481 7.245575611821705 0.0 -0.05357620167356438 0.13362105711099004 0.0
4 1 17.1310884373273 10.144450081118032 0.0 0.04283984454047765 -0.007043470901462774 0.0
5 1 6.118599789935289 10.996727096977194 0.0 0.02397347011501045 -0.028981586688624036 0.0
6 2 16.810722460317823 14.97742362020392 0.0 -0.06487877888307055 -0.02014160327802505 0.0
7 2 16.92560000753182 4.711472979690625 0.0 -0.08558191553831897 -0.08763106318903378 0.0
8 1 12.575066688928015 7.292176758645604 0.0 -0.010935095041662115 -0.03753098568367315 0.0
9 2 14.688449623564683 5.219641345943031 0.0 0.06527416247082207 0.02631033285149042 0.0
10 1 6.67063596376898 10.628012628521724 0.0 -0.041333337571035356 -0.11142676241694995 0.0
11 2 9.095366610389508 13.83728543907061 0.0 -0.07741786987964663 -0.08797293519735752 0.0
12 1 18.845993102412116 10.105802375686194 0.0 0.07121534197500687 0.023882023029971843 0.0
13 2 1.3661653136184175 11.701568409045892 0.0 0.08011773532931059 -0.007755213232041471 0.0
14 2 9.285526869516028 5.853707690998627 0.0 -0.008851889815692786 -0.025643808846635138 0.0
15 2 10.454204671875027 17.142514868359118 0.0 -0.06987408643715706 0.0017653350410351569 0.0
16 1 3.126775746600638 17.373552434135263 0.0 -0.08268796512382952 -0.020200852947547157 0.0
17 1 19.515398352872435 10.084330639184895 0.0 -0.04270293290849261 -0.0020762633702181587 0.0
18 2 9.242688160844189 19.045581409928765 0.0 0.033484125000862515 -0.012061200436136753 0.0
19 1 10.823111991758829 16.084128512782833 0.0 0.009798914075931711 0.0479493811449497 0.0
20 1 13.299895916545202 7.202308763625296 0.0 0.06936905982794982 0.006828558128939489 0.0
21 1 19.224646206363996 17.404605995242406 0.0 -0.12450157913860549 0.015546881320237259 0.0
22 2 17.818350494436803 11.58915564739082 0.0 -0.02884548554251277 0.0213412122575386 0.0
23 1 7.741236377920695 1.1900700242089766 0.0 -0.008740366491028186 0.08309056471574104 0.0
24 1 10.443629615086476 3.957812423616497 0.0 -0.017969271934048084 0.0058868927643126855 0.0
25 1 1.0333600869985153 0.33241143533589806 0.0 0.047405397647245474 -0.10408360219428905 0.0
26 1 9.216001166463439 9.106590785508756 0.0 -0.11596259173907811 -0.14411098971548986 0.0
27 1 2.467756323174113 15.730879062643847 0.0 -0.06817434603625713 0.06825092078193364 0.0
28 1 13.97522484300145 17.217556482722948 0.0 -0.04556534798379166 -0.09245954546708046 0.0
29 2 18.00750205332066 0.4493286769883972 0.0 0.03771024582054525 0.07093349973795239 0.0
30 1 0.7685890241804296 17.986571939683667 0.0 0.01540243716239543 0.047151857874093 0.0
31 1 17.584357488915717 7.560207579675161 0.0 0.061783751710667086 0.05942277539978596 0.0
32 2 3.434544975645331 16.272114593038804 0.0 -0.0005738439220694637 -0.042587455469806974 0.0
33 1 13.582016084424808 5.136075548768436 0.0 0.04441166709686091 -0.13195698890157526 0.0
34 1 10.815872882199512 11.907841643044017 0.0 -0.015360251406382244 -0.004654254516010786 0.0
35 1 16.1274497892625 11.817091887709847 0.0 0.04270717663077452 0.08976491673804471 0.0
36 2 12.17956828998029 8.549930180255398 0.0 -0.09575579677190246 -0.09248589509315508 0.0
37 1 8.716338711513117 1.7323772153731152 0.0 -0.015148226473441986 -0.059844962060007056 0.0
38 2 0.8285919911851304 12.82848189055465 0.0 0.017193150867051955 -0.10368541850109755 0.0
39 2 2.5031144988343277 12.123617600597797 0.0 -0.04915801608667097 -0.00815677751137833 0.0
40 1 10.127065779466383 14.265704177666217 0.0 0.03153805103644039 0.14767682729342133 0.0
41 2 3.336035916661783 1.0936907537838287 0.0 0.0744585266306978 -0.02176533192437931 0.0
42 1 11.419722229568494 17.707264694692398 0.0 -0.20808765263211937 0.11019329782481588 0.0
43 1 12.979519793535417 0.58383672868872 0.0 -0.07988345966667586 0.03050318419391745 0.0
44 2 10.63606521139044 5.037748696223824 0.0 0.08852216571459065 -0.06155755643246687 0.0
45 1 9.68498113684536 12.28554499632429 0.0 -0.14086130314085998 0.2207441686673245 0.0
46 1 0.4743073614098625 19.749167492801053 0.0 -0.0088067554477989 -0.16615661629287057 0.0
47 2 14.005408055450172 0.27732306776994137 0.0 -0.020061311406805026 0.02350903093658565 0.0
48 2 11.512271856641739 15.210300257448711 0.0 -0.03495007149885877 0.00031075510284655106 0.0
49 1 18.266301296495087 1.5263461679178036 0.0 -0.03586101662755563 0.059476120391378035 0.0
50 2 3.698675178436611 3.690110964881895 0.0 0.08836700698943345 0.004752324742534116 0.0
51 1 10.003955885433118 6.66826298933689 0.0 -0.00309384980999084 0.07130397079066578 0.0
52 2 4.931823668436081 5.591301726563206 0.0 0.057077987851737275 0.0773582578980033 0.0
53 2 17.74782648874773 18.1400725648749 0.0 0.01603196624722004 -0.004786961048131167 0.0
54 1 12.242396963825984 6.698164648268497 0.0 -0.04357856435558642 -0.04338243490302368 0.0
55 1 18.28173888295203 7.623848501676574 0.0 -0.02356927514253691 0.03007241168490394 0.0
56 1 9.153734359142899 4.208254903290516 0.0 -0.04996967100530295 0.014528875004522148 0.0
57 1 5.123544792910667 7.208266620623256 0.0 0.0033404464842705147 -0.125085228071889 0.0
58 2 12.49859813873734 12.03010678756805 0.0 0.04304474715838128 0.013121433820919022 0.0
59 2 16.112620660084158 16.134482695345465 0.0 0.007229832434109259 -0.01133761047517975 0.0
60 1 13.70797975121507 7.704166203816851 0.0 0.06706047082244397 0.09955194602059474 0.0
61 2 16.72251822192987 0.7807694071795593 0.0 0.05060474561198935 -0.04174139375163576 0.0
62 1 1.1321975066833923 8.763023251234591 0.0 -0.041720598617241304 0.027665668502636437 0.0
63 1 0.9847108589499336 19.352433553608886 0.0 -0.030173311494856404 0.07000676116715686 0.0
64 2 0.2769312186877939 6.027480081644593 0.0 0.022068729770925076 -0.04293091510956724 0.0
65 1 3.552523174792386 10.236663508886584 0.0 -0.005702874678200548 -0.08107673226015984 0.0
66 2 16.558575009610394 7.95500830829496 0.0 0.04983851423097582 -0.014933165662943254 0.0
67 1 5.437744954945812 10.996227213653007 0.0 -0.102291259587278 0.005479403846079628 0.0
68 2 3.2172387271716434 19.563591815396475 0.0 -0.04356864061332766 0.0022998686098010188 0.0
69 2 16.011323563355322 19.4797572326595 0.0 -0.07951511276986646 0.002352710194253585 0.0
70 1 1.669538880138749 0.5213391893542555 0.0 0.07506277147051461 0.06654719088075979 0.0
71 1 11.66450416006255 9.593175546926407 0.0 0.03666048724487313 -0.0999501690648106 0.0
72 1 10.151706872592136 13.598276006644934 0.0 -0.07871405557824794 0.051388167789132626 0.0
73 1 7.857021135075494 10.18414700992669 0.0 -0.13944561656475665 -0.020334398619594806 0.0
74 1 13.0116332556456 2.436801847468069 0.0 -0.08458892482669027 -0.05510220765148432 0.0
75 2 0.2148695400564256 8.03722456284763 0.0 0.01708073820637403 0.025417261289821854 0.0
76 1 9.657728958112903 10.110139939144194 0.0 0.05117774880015734 -0.033767129013123016 0.0
77 1 9.989929000939533 2.1789630860581246 0.0 0.010034793745014137 -0.000989831651271482 0.0
78 2 0.589724777102685 10.770558287656412 0.0 0.027118343943537262 0.06837125732866094 0.0
79 1 2.7649468473589556 2.0545234157853582 0.0 0.023457973523524037 -0.14283593270010436 0.0
80 2 13.13613649790226 14.171489091469935 0.0 -0.017644042856057453 0.12364619034207934 0.0
81 1 0.3306786435151435 19.10951190043735 0.0 -0.12560824999137496 -0.17676389728449893 0.0
82 2 12.972872943634071 16.741392911513636 0.0 -0.10197810009856181 -0.08264124539240146 0.0
83 1 1.7971387868762998 15.783363582992406 0.0 0.07932290049988572 -0.010241999220455867 0.0
84 2 3.413061931651042 11.345157402360956 0.0 -0.05294625146598679 -0.05212397243054909 0.0
85 1 18.851914040885898 7.995764541893471 0.0 -0.03964672121832934 -0.01587315770546808 0.0
86 1 11.262620634056574 1.884612668254072 0.0 0.1589103833489198 -0.13108147495808528 0.0
87 1 8.526013209881329 10.133268223526375 0.0 0.035422179897434715 -0.0024220716293895995 0.0
88 2 16.673187508101794 2.0951294685797417 0.0 0.10976140687564957 -0.05125709838584122 0.0
89 1 9.015467357004212 16.688572765946265 0.0 0.017932732992357696 0.019669160456931945 0.0
90 2 8.106622175099423 17.25117844119568 0.0 -0.005240399606207215 -0.04049829802265998 0.0
91 2 10.806194610259498 19.29075784954637 0.0 -0.031818675193732174 -0.005273704461453991 0.0
92 1 4.7971578625417255 12.701377563219602 0.0 -0.15368376404334524 -0.1391827811703343 0.0
93 1 5.765310017616405 4.848608051609727 0.0 0.09192176665112568 0.1939512385695957 0.0
94 1 9.09652618420707 7.610480619407293 0.0 -0.002456372198804196 -0.06343566599451436 0.0
95 2 1.2454338279705526 1.4973842276420866 0.0 -0.03437814122833847 0.06592533003230881 0.0
96 2 8.27656528040734 11.220328851048455 0.0 0.008332556422905703 0.00855846224680025 0.0
97 1 11.257510609745362 1.2000517434077456 0.0 -0.01117092026424106 0.004119747833255172 0.0
98 2 12.740349050796311 9.756532864850218 0.0 0.023478428882126506 0.05307930367116657 0.0
99 1 10.002142559911778 1.5077965175557537 0.0 -0.029118776710187047 0.0038798968209138936 0.0
100 1 10.477805297421401 15.50225486097627 0.0 0.06792273816921529 0.046564296834766324 0.0
101 1 1.334932426169377 17.56787820073625 0.0 0.004944013030750979 0.018092350542963816 0.0
102 1 13.731209728284876 15.908705804936634 0.0 0.011711683343560545 -0.010210360771323958 0.0
103 1 10.354695521818746 6.097698403263998 0.0 0.01585379267699883 -0.05082816189765405 0.0
104 2 6.867346723473172 4.681729625588796 0.0 0.038453701644385205 0.031102067822347614 0.0
105 1 10.686256649630035 6.695253461606606 0.0 0.021737662722086014 -0.0129996144932452 0.0
106 1 11.111380551833456 4.013816937822962 0.0 -0.005766086337773765 -0.03252813400551183 0.0
107 1 4.830700535087784 1.8884604373202918 0.0 -0.020916477469709358 -0.023647229920940854 0.0
108 2 6.426354470577053 14.279531396444199 0.0 0.03511354028548731 -0.005865449084244188 0.0
109 1 18.265916777922513 8.321073173378906 0.0 0.009688614748749177 0.10625976387370682 0.0
110 2 7.191715274467167 16.314288201337714 0.0 -0.11408411620926073 0.02787968580549683 0.0
111 1 10.472234071628309 14.844922502164946 0.0 -0.027604776704653996 -0.17205184551029842 0.0
112 1 10.838594028789563 18.173483106457674 0.0 0.13540623180120054 -0.11264257624823386 0.0
113 1 12.369385838544241 2.5713310468706427 0.0 -0.03965596819084393 0.0218957331204446 0.0
114 1 13.352624738802769 1.8504475996173364 0.0 -0.09918895971600528 0.04169448662481827 0.0
115 1 14.312924815179825 7.35843803386928 0.0 0.03955497500279929 -0.007186435055508775 0.0
116 2 2.346978816912451 10.739470489226925 0.0 -0.12038742158326109 0.002368923658822487 0.0
117 2 13.478936968006227 8.790215009260676 0.0 0.015682503740780764 0.03147631840971183 0.0
118 1 2.65238120123522 13.186365281530803 0.0 -0.05933678049581601 -0.023080212763287082 0.0
119 1 15.763684238225133 11.225641719623429 0.0 -0.08428703120389056 -0.011430258842541216 0.0
120 2 17.5026158516342 12.892400786445508 0.0 -0.06820538465053833 0.009147844832469132 0.0
121 2 2.675523561406636 9.502393818896053 0.0 0.007472184653720142 0.002947936467036174 0.0
122 1 1.52443185314825 13.683142726123089 0.0 0.0007779317201655728 -0.20483852868850808 0.0
123 2 15.253998223071713 18.462489411811315 0.0 0.03087666372862398 -0.04572987918306966 0.0
124 2 17.194914590398803 19.287725940398637 0.0 -0.054228121028819125 -0.07748789193461768 0.0
125 2 14.090904072691062 18.760573093656944 0.0 0.009475153356448572 0.049494906125361504 0.0
126 2 19.18129470206921 9.02896500353551 0.0 0.011155158355693476 0.06630024408119138 0.0
127 2 6.895167687061455 12.996829952196238 0.0 0.0037154058276936295 0.063701367229116 0.0
128 2 5.649779733208664 13.358281454184231 0.0 0.028617359534364395 -0.08919898255567972 0.0
129 2 15.264209972026801 15.273430245089592 0.0 -0.034506220111851615 0.0527092335734441 0.0
130 1 2.642477795406385 17.914839634975728 0.0 -0.036729785383618825 0.08084987398413945 0.0
131 1 14.933343311507151 19.505998600158936 0.0 0.08535529993463876 0.06478497833100338 0.0
132 1 18.24747286095849 19.12965224681302 0.0 0.11367280260442994 -0.023587599763693793 0.0
133 2 15.428083868313793 2.141197683524562 0.0 -0.009795205908234801 0.022353860460205755 0.0
134 2 3.1923943857925097 14.1378080315156 0.0 -0.02524333182330259 0.05148607566132478 0.0
135 2 12.836972457251072 3.5784438586969305 0.0 -0.024993560986795813 0.006122797746715625 0.0
136 1 17.589021660247173 8.327179715783867 0.0 0.05805828470569113 0.09573924906172154 0.0
137 2 18.007699592889136 9.430375709711491 0.0 -0.023998924735245876 -0.028912120731919986 0.0
138 1 10.971038411834265 11.243855958941595 0.0 -0.009148648416633437 -0.11700525253993485 0.0
139 1 10.18780018498755 18.38451645766104 0.0 0.03060163499263307 -0.2070083665264768 0.0
140 2 4.344838429021037 0.2918162156030282 0.0 0.05196394144915631 0.007553000194499876 0.0
141 2 6.449343248218526 2.609785235136843 0.0 -0.007955439021987214 0.02612233419991579 0.0
142 2 18.87256609279301 16.36498604873462 0.0 -0.012666447202379305 0.07532696629669815 0.0
143 1 13.012883473775895 7.806169185439013 0.0 -0.026863898352706386 0.02509623453164893 0.0
144 1 2.1665054319230896 19.199467571669857 0.0 -0.12325265591332946 -0.14120813565483303 0.0
145 1 17.004207656423013 10.80153376418579 0.0 -0.0207744705168274 -0.0013655129320762935 0.0
146 2 16.0150839143041 5.650245262135311 0.0 0.1016732949925351 -0.009342332074345662 0.0
147 2 9.625227130352703 3.1999529443467627 0.0 -0.01034267991830395 0.1554222996367945 0.0
148 2 16.90181632646813 17.126340409782102 0.0 0.01108138781128124 -0.015624127190590314 0.0
149 2 3.7592232953174913 5.092458540007954 0.0 0.04683136677933561 0.05197742090822136 0.0
150 2 9.443102425965 15.214227805712898 0.0 -0.017835967447358644 0.01950926249328787 0.0
151 2 5.316451854134722 19.197232834673414 0.0 0.10170596812228726 0.09967093317855513 0.0
152 1 11.691673500764171 3.6564990329950384 0.0 0.010386343323553312 0.01276148570126003 0.0
153 2 12.62680686676906 5.664007860849331 0.0 -0.015737537696496696 0.0248258122016351 0.0
154 2 13.75784895137092 12.019018261685646 0.0 0.08748203787083626 0.027889940805800692 0.0
155 1 9.389992078918207 6.977910381111142 0.0 0.1559047997015539 -0.004774156975597581 0.0
156 1 10.593692627570348 1.211842877604362 0.0 -0.09743997132634392 -0.005883576849472906 0.0
157 2 19.16206552939568 19.709825578449387 0.0 0.002193708902949104 0.019306968510556525 0.0
158 2 15.959081271765973 6.865657976802789 0.0 -0.024169022708446522 -0.0881398678622121 0.0
159 1 0.6487905384588617 7.03244938981483 0.0 -0.07915793517455985 -0.010616378750489283 0.0
160 1 18.969445851666634 2.60908259020527 0.0 0.0665911771032832 -0.12532375519082004 0.0
161 2 2.543321074059035 3.1553433062316794 0.0 -0.006983112550509058 -0.006682040544744224 0.0
162 1 5.670364870082281 7.588743033733189 0.0 -0.09494126961400132 0.056222784618043226 0.0
163 2 14.369464383982159 1.5025783095665703 0.0 -0.030148168736142046 0.022945005816562745 0.0
164 1 0.5490330651813381 9.085175705694779 0.0 -0.054177516613993296 -0.0028864185412303175 0.0
165 2 12.309864540249793 1.469203857544574 0.0 0.006542806236410638 0.08878582164116215 0.0
166 1 12.897580504081276 6.701959569725443 0.0 0.09298672297635947 0.009969499078212547 0.0
167 2 9.885842997824057 11.221899556804207 0.0 0.11698548048882469 -0.008643177144835812 0.0
168 1 9.605850985989546 16.40931270835159 0.0 -0.0557574032435707 -0.26480590477756105 0.0
169 1 2.331929060779576 1.5231533418788419 0.0 0.05995694647018335 -0.06852463611039787 0.0
170 1 17.091753850322792 7.02343082083592 0.0 0.09452654732491762 0.1168666790330561 0.0
171 1 9.3489865990953 1.4365385221064746 0.0 -0.009493736439441024 0.03083785190565517 0.0
172 1 0.8854379884051643 18.677879006397415 0.0 0.11007624052209185 0.05125573336672752 0.0
173 2 14.729672737736704 9.019929718722594 0.0 0.009463192996539783 0.07686510277487578 0.0
174 1 11.741396934888812 4.324540711025087 0.0 0.07377683145404451 -0.10981982383811856 0.0
175 2 2.632830128701782 4.408872797463567 0.0 0.004278569281431752 0.03878354128408676 0.0
176 2 11.524382790680136 12.790904766684658 0.0 0.04164534468290494 -0.15740336334749888 0.0
177 1 4.9744171454678305 17.132499304624414 0.0 0.06800805131557332 0.08665891093765561 0.0
178 1 16.305057081197983 10.76375177799769 0.0 0.030754607031633446 0.00882679148931807 0.0
179 2 15.793975227034098 14.151419399691719 0.0 -0.019022032083388714 0.021342542682584034 0.0
180 2 4.8266103498275035 3.0834974776362296 0.0 -0.042304922189873036 0.01610055998819892 0.0
181 1 2.6215812472023092 7.955294580443809 0.0 -0.11521378776846791 0.024510848570039427 0.0
182 2 1.4909972815620651 7.741555628853762 0.0 0.023450941702636927 -0.009990785515036222 0.0
183 1 4.176377525910431 10.588226315149356 0.0 -0.010915808802692656 -0.0051912849658618185 0.0
184 1 7.992717432801579 1.8038880570594316 0.0 -0.01017407046432765 0.03781971056305043 0.0
185 1 1.6089626918315456 19.613351985344515 0.0 0.06371261207633533 0.13660132329367405 0.0
186 1 9.855224356950142 4.245249400088142 0.0 -0.03632416289994671 0.03943518444982402 0.0
187 1 4.384030221956853 1.3871518967797614 0.0 0.11820387133142614 0.04543399822072018 0.0
188 1 1.9571452775073686 17.84801096898481 0.0 -0.05040316175824942 0.04187895495622555 0.0
189 2 8.648732675807405 0.6153172219172464 0.0 -0.02376734104408556 0.02240016196110491 0.0
190 1 10.824198719892538 13.6269058367254 0.0 -0.040150772305780964 -0.013839870161311517 0.0
191 2 15.962261889157649 9.05879843701971 0.0 -0.047256077116040546 0.002015289295001349 0.0
192 2 10.730793309639168 10.169454099048634 0.0 0.06096622287908195 -0.08639354307137234 0.0
193 1 8.062403517478016 14.215320212696259 0.0 0.0763900095102806 -0.000563979128290068 0.0
194 1 7.121879851439536 0.9896333351369346 0.0 -0.15154421288912834 -0.03398723285499437 0.0
195 2 13.169787830588282 17.971959536369813 0.0 0.002290829239158742 -0.00870527392260697 0.0
196 1 12.14905103392828 18.334887211496003 0.0 0.09433054543808563 0.10657165773031484 0.0
197 1 11.760644244289233 5.000638425840047 0.0 0.08555262558614793 -0.008140346345866368 0.0
198 2 11.475498110988333 7.443071721742344 0.0 -0.1284202103565895 0.04747604187755645 0.0
199 2 9.858318231891907 0.4076505473429939 0.0 0.04529155771782959 0.03170801830355667 0.0
200 1 13.583657852650708 15.174994632294732 0.0 -0.1319400235208685 -0.03541767568645092 0.0
201 2 7.122254491217033 6.821930984185477 0.0 -0.042261054694106126 -0.08013049882562429 0.0
202 2 18.952242371094822 4.3067639939069915 0.0 -0.015566178211803084 0.050183016445693986 0.0
203 2 8.355558795835346 15.84197598958466 0.0 -0.054691974570939696 0.05273222474637562 0.0
204 1 16.845139324753514 13.826008488282005 0.0 -0.13690879335475276 0.02996544707391063 0.0
205 2 0.1478430665689112 15.66606851716691 0.0 0.07129901751562259 0.0012490001933147875 0.0
206 1 16.919695656376803 6.371351174068034 0.0 0.1571467900960044 -0.005320500055825294 0.0
207 1 18.012913881123186 4.851937065411649 0.0 0.16960745968719274 0.02872817478189783 0.0
208 2 3.658350995380712 18.378037984121494 0.0 -0.06835648131783907 0.07758271316627106 0.0
209 1 1.903280486738663 13.053043449100052 0.0 0.040904768356496785 -0.024402702320701738 0.0
210 1 13.343702556643027 1.1583030609768121 0.0 -0.06479166817016332 -0.03660219261494027 0.0
211 1 1.2147356552510673 6.640969137361829 0.0 0.03623879223118449 -0.019704740665036812 0.0
212 1 12.365589191428388 4.592599771637312 0.0 -0.007429071507718175 0.0557190270423258 0.0
213 2 14.617250287326385 11.117527529923475 0.0 -0.036959513206016516 -0.05615644496685078 0.0
214 1 17.58850457782926 1.4545763381963046 0.0 0.041760873776585966 0.08433069732058009 0.0
215 1 6.34074906854113 7.577631160705973 0.0 0.08024313725939547 0.22920137061724308 0.0
216 1 9.325228763673309 2.1040443693738413 0.0 -0.10345693027743617 -0.0002774842193842557 0.0
217 1 2.0096192767523093 18.50281193365999 0.0 -0.05928890248826106 0.06854969215104233 0.0
218 1 14.585558119681453 16.920243955183462 0.0 -0.021531189098337282 0.036491304889710426 0.0
219 1 7.0084010018565115 3.5769529140603504 0.0 0.1365352014942561 0.0012444286995225132 0.0
220 1 9.099172748602273 10.463515100374183 0.0 -0.039247146373639456 -0.020178512914768444 0.0
221 2 10.812583521446708 2.936515542126704 0.0 0.03370717509507222 -0.003799942363639853 0.0
222 2 0.724122454791861 14.45948855523199 0.0 -0.009177909901896581 0.0026999066539560982 0.0
223 1 16.4701535721685 10.077931511137903 0.0 0.1023958394662488 0.01066705933713179 0.0
224 1 18.31425957370665 10.516468606456886 0.0 -0.04467792745218825 -0.04252122765169149 0.0
225 1 11.45540789790286 11.703533833748832 0.0 -0.1490128150462295 -0.025095281236231393 0.0
226 1 0.2543131227402231 11.878136336921065 0.0 -0.05642240691247036 0.023736637795620196 0.0
227 1 9.141246895173774 8.358330708530302 0.0 0.005604858992463076 -0.0745842220006868 0.0
228 1 11.89116887230293 3.023995821817016 0.0 -0.02557433675694899 0.05904474450453295 0.0
229 2 8.049294822047523 7.860681774621669 0.0 0.01622914354184911 0.056256383107276806 0.0
230 1 17.166196105116544 5.76202575958174 0.0 0.007795750701272001 0.06407999999672552 0.0
231 1 3.864611623958657 7.566118501245156 0.0 -0.0007211535698350369 0.12898866682369584 0.0
232 2 15.386390309181213 10.164061331786979 0.0 0.0035585278020256695 -0.007648572085166036 0.0
233 2 4.036541119342982 15.077898638547193 0.0 0.09546581033499427 0.028738580996358173 0.0
234 1 4.737122153246161 6.648468091247985 0.0 -0.009164556654546801 -0.028243736280068696 0.0
235 1 18.002896632973062 17.057828228539005 0.0 0.010032390667194373 0.01000155099701061 0.0
236 1 14.482977384175479 17.657922846001856 0.0 0.13621924853470513 -0.0033269136538928456 0.0
237 2 0.43482832535746524 16.941064676078422 0.0 0.05454588258129311 -0.13905552286970904 0.0
238 2 6.949847241530174 9.57784276240628 0.0 0.11121746595226203 -0.010224070779115883 0.0
239 1 10.471949779068064 13.028085161045745 0.0 0.012079995083940153 -0.13330135364565765 0.0
240 1 15.024467601510066 16.376765777161207 0.0 -0.10884092307940267 0.024541429052780776 0.0
241 1 15.036084852141983 6.261693461705655 0.0 -0.026075658176005864 -0.0662025709253379 0.0
242 2 1.4197590056461311 9.820487823590474 0.0 -0.07139337312431414 -0.018451414996523467 0.0
243 1 13.098721605953616 15.633677077152887 0.0 -0.05964790714191745 -0.07741412034225656 0.0
244 2 10.206904792938412 7.741999251123198 0.0 -0.09009396879009374 -0.06092868021404732 0.0
245 2 19.113298831325626 14.658159654696018 0.0 0.0032378482853635524 0.0003802428123207052 0.0
246 2 10.828114688394907 8.883173204144562 0.0 0.08360488350614738 -0.12291605043648929 0.0
247 1 3.177962638277397 7.537984106856811 0.0 0.08436885776252236 -0.06998394738290012 0.0
248 2 6.242128936084222 5.864556794537271 0.0 -0.0029171802894148273 0.06180912899075001 0.0
249 2 11.930474955577015 0.26555298948370915 0.0 0.06907360833494178 -0.07385954531524701 0.0
250 2 11.893317193044426 13.999340303968506 0.0 0.0551784329269543 0.021727165937340153 0.0
251 1 12.608227606143817 15.122065075938583 0.0 0.010243407223539417 0.010296099549929421 0.0
252 2 1.414860828076285 4.080687920175326 0.0 -0.026564185028091224 0.0684975869369396 0.0
253 1 9.811877485535959 12.952533511383587 0.0 -0.06244547117936617 0.27426051507983995 0.0
254 1 17.653626767428342 10.52574418419622 0.0 -0.11749838842759204 -0.04338880666892545 0.0
255 1 4.347930505482332 16.928299057224944 0.0 -0.0699789176192719 0.06744805012826245 0.0
256 2 5.750937126731384 9.93403117107837 0.0 0.06545225547879371 0.10061853346493296 0.0
257 1 3.8132834121290093 17.31983613977787 0.0 0.012855872691745847 0.020683762956083443 0.0
258 2 18.07466596454073 15.392893059362528 0.0 0.043876679276636944 -0.01075421853622125 0.0
259 2 15.311059545449593 7.91123715028041 0.0 0.044884532032497745 -0.0038265410840446876 0.0
260 2 5.986498465310693 16.72675333597105 0.0 -0.0362588165164416 -0.015171296797780148 0.0
261 2 8.047669078897513 4.031589183919305 0.0 0.02024368521562812 -0.040041428257951366 0.0
262 1 10.823752692664604 14.289751556185513 0.0 0.02297899024764249 0.05042786990792198 0.0
263 2 11.73560692377035 16.632412090068822 0.0 0.03445367526290591 0.010928570247074753 0.0
264 2 13.14875648677991 10.941456936017445 0.0 0.04767160379703676 0.05250942091299786 0.0
265 1 9.077347195998284 9.761821941335604 0.0 -0.040587483831986196 -0.07516738156254986 0.0
266 2 18.994428369411416 12.381296513557544 0.0 -0.0062914907402446185 -0.07058587550513881 0.0
267 2 18.862500917278183 5.581921082116059 0.0 -0.01010947062352779 0.053372474363085044 0.0
268 1 11.53562745762409 5.660612207846107 0.0 -0.05179341106948527 -0.047615234498803206 0.0
269 2 3.655738324320413 12.683061897316968 0.0 0.01676527795662783 -0.05134407611170277 0.0
270 2 14.04006673573794 2.7424594967149885 0.0 -0.07689473514199413 -0.011433484873514716 0.0
271 2 11.905605333650923 10.704296793357425 0.0 0.023908932439397824 -0.09310586320574502 0.0
272 1 7.43724082192174 3.073883189521531 0.0 -0.0687666616062784 -0.08555986017573847 0.0
273 2 3.5330213353732347 8.605260673999522 0.0 -0.046354452962432395 0.0476427543166862 0.0
274 2 16.168103537324004 12.935419509334643 0.0 -0.005292874308484485 0.06491750015596126 0.0
275 1 2.6358918204197996 18.633714303105947 0.0 -0.07032940186123768 -0.04599429106086334 0.0
276 1 7.175682697303214 8.523063599566058 0.0 0.0265139071802369 0.12428811565493576 0.0
277 1 11.674759513999453 6.325836398028502 0.0 -0.030066492885233536 -0.043118456952290427 0.0
278 2 15.097571978274742 12.253060973769564 0.0 0.003631392300776182 -0.032867953759019804 0.0
279 1 12.661665604453129 13.12673143690785 0.0 0.07653528918602742 0.030143460577914612 0.0
280 2 4.3859028493740535 13.726466588157992 0.0 0.006668427977340613 0.02308548939260113 0.0
281 2 4.783640263636515 4.33231566271678 0.0 0.06617554893827146 0.013303039854801031 0.0
282 1 10.920373216855403 0.629758984678335 0.0 -0.0747809510174857 -0.04426221558546034 0.0
283 2 3.8134403619612267 2.3389843191915305 0.0 -0.03149250819527854 0.022359425433699395 0.0
284 2 5.732768011535807 17.94167921645694 0.0 0.05665757705259151 0.02440161132883506 0.0
285 2 8.001222601943416 18.51385638148298 0.0 0.06770521287142629 0.006947476926985659 0.0
286 2 5.7792630947637305 12.060814165370445 0.0 -0.023633290096628262 0.0501759428464776 0.0
287 1 17.750374538893816 16.434707342278987 0.0 0.14327813825304728 0.02524133037147504 0.0
288 1 2.9553338801116094 15.24596501162774 0.0 -0.060822321192550495 0.14278455275909874 0.0
289 1 14.029223245169577 16.5382806351677 0.0 -0.017922662674576758 0.008612811264916972 0.0
290 1 10.348900763216582 12.378891779765809 0.0 0.07354733583485008 0.0022783162288632745 0.0
291 1 5.034888339700293 1.2124883078106838 0.0 0.0006666515576426119 0.027397632910112497 0.0
292 2 8.351494650752189 6.6620382392064155 0.0 -0.03569168868504348 0.014752967692829175 0.0
293 1 1.5168612671290103 18.94122711564289 0.0 -0.14669162962028634 -0.10586307074075114 0.0
294 1 14.26827184508604 8.046156715826045 0.0 -0.040740880389052894 -0.09550979644954184 0.0
295 1 11.47128758547002 18.382378137971646 0.0 0.009721180057671374 -0.013901220524219578 0.0
296 1 8.837759947208848 4.8212137428495705 0.0 -0.08286001249856087 0.017643715414835986 0.0
297 1 7.506181833229218 2.341853872769306 0.0 0.04807652195201232 -0.1569617841373095 0.0
298 1 9.087912912728703 12.001615713798788 0.0 -0.06715949273699885 0.15760232046833436 0.0
299 2 17.88159828146776 2.5384678146711277 0.0 -0.0053263210257551135 0.0029328647485326086 0.0
300 2 1.991931610144677 14.709049282745838 0.0 0.07656766882349585 -0.016286064117836285 0.0
301 2 6.128763634614642 1.4015075481644261 0.0 -0.028350134643350105 -0.03578608365462123 0.0
302 2 19.1767407382417 11.160910882154004 0.0 0.05109936230220307 -0.05588695746222522 0.0
303 2 6.0529394281810935 8.632309876051284 0.0 -0.08131627120837924 -0.013973035290135037 0.0
304 2 0.1215599831447233 0.9847464409119758 0.0 -0.024980986400399544 -0.05274810932823709 0.0
305 2 6.92400068049679 17.55888528493373 0.0 0.05369484723610992 -0.028137460255001957 0.0
306 2 9.2858663869969 17.746198539114168 0.0 0.022002390693800614 0.027009897583419595 0.0
307 2 15.696888664758303 4.433746225776329 0.0 0.02622486579809208 -0.019825874899819962 0.0
308 1 5.422049534565225 2.197142374631461 0.0 0.061906678850929785 -0.06288421843406487 0.0
309 2 7.931405250599665 5.432585777373599 0.0 -0.014638306603447573 0.0873393513454485 0.0
310 1 17.080716348809872 8.8809043402115 0.0 0.009198228764660034 -0.0427639718823215 0.0
311 2 15.386521312118186 0.7946537105488772 0.0 -0.0012937717070679105 0.02444427133304907 0.0
312 1 11.027205495672344 6.112703238619908 0.0 0.027322151380622228 -0.016495247204385385 0.0
313 1 1.20103592659529 15.471213922393407 0.0 -0.06277263689840094 -0.0066696461890603615 0.0
314 2 7.601682100474347 19.745421758002255 0.0 -0.026699470291073887 -0.11387854957009207 0.0
315 2 4.807578881963328 8.285515837467319 0.0 -0.019217576016865454 -0.05580798314430708 0.0
316 1 16.91717889773957 9.530582098662343 0.0 0.034660165110094406 -0.060609978314044397 0.0
317 2 2.330696098552976 6.854022685431317 0.0 0.034546979070271634 -0.05944896769605654 0.0
318 2 15.616584054428218 17.28905566370945 0.0 -0.050394238483399606 0.04362723012588961 0.0
319 1 16.787048156165824 12.038844849570443 0.0 -0.06488124326354401 0.04374397743671649 0.0
320 2 12.906312629906694 19.2186826438475 0.0 0.09927314461423646 0.00812629208904797 0.0
321 1 18.92968870222728 18.026012619865327 0.0 0.07908324011026381 -0.12171984926796542 0.0
322 1 4.484616076260193 17.615103660620864 0.0 0.011357884254631584 0.006830396448173296 0.0
323 1 17.76639630945067 5.470920554613698 0.0 -0.13219761537091812 0.11137220877627747 0.0