ITEM: TIMESTEP
0
ITEM: NUMBER OF ATOMS
400
ITEM: BOX BOUNDS xy xz yz pp pp pp
0.0 19.7609 0.0
0.0 19.7609 0.0
0.0 10.0 0.0
ITEM: ATOMS id type x y z vx vy vz
1 1 6.6569209158599145 19.481476895257305 0.0 0.035895165497165926 0.001712048945428708 0.0
2 2 15.317076595891617 5.3895149519782475 0.0 0.007630749204342101 0.024604056164588713 0.0
3 1 9.599187197632185 7.3893484313435245 0.0 0.008634442626196696 0.11768419667180015 0.0
4 1 16.896552915085554 11.993985751935172 0.0 -0.11235495222084727 -0.1258867361779953 0.0
5 1 2.001004777057291 7.428787952013815 0.0 -0.03144741876417296 0.05342563186443072 0.0
6 2 19.559410932778043 5.98465392219074 0.0 0.022177417864864473 0.08046505027220717 0.0
7 2 13.022346307740046 9.438890075947366 0.0 -0.015905275275687043 -0.08155866326692252 0.0
8 1 2.5921514461747246 10.845023936890662 0.0 0.03729220593336291 -0.01674189145137451 0.0
9 2 1.203672402907455 3.6450009966732804 0.0 -0.08362654853734512 0.027473048509577783 0.0
10 1 1.4796252728118482 18.343212020272816 0.0 0.02157959524090476 -0.14632993617460344 0.0
11 2 18.472951051535073 1.5862199320752999 0.0 -0.08152376371123363 -0.011544906568839103 0.0
12 1 8.399711230473143 8.074822025858793 0.0 -0.053525706849678244 -0.020026222021898993 0.0
13 2 17.81606639224172 4.871282782038061 0.0 -0.026429334098190874 0.06269954837183606 0.0
14 2 3.180634676482706 17.580203881178218 0.0 -0.00670428038791808 0.022540317213739336 0.0
15 2 7.597308529214975 18.958519206478684 0.0 -0.019862794316705155 0.017043243143020456 0.0
16 1 12.918060977877907 13.680647240305616 0.0 0.006722836073967899 0.17634574283961266 0.0
17 1 2.1736666196797314 14.14088282921831 0.0 -0.024717349285308658 -0.07872890187434724 0.0
18 2 16.921655859191507 7.422421600652212 0.0 -0.054237049208303224 -0.03364217293269083 0.0
19 1 6.811087429654089 18.177647411178825 0.0 -0.07212134528397145 0.060936603797097325 0.0
20 1 15.994032900622024 0.1647033903533252 0.0 -0.03628610198522813 0.11447703429375543 0.0
21 1 8.817722529711444 5.357094603858554 0.0 0.1305359286702607 0.0771529641869753 0.0
22 2 3.0381961927272916 4.8322110997219765 0.0 0.05603005705963089 0.05452743516226728 0.0
23 1 17.311280062148366 1.6353177275283728 0.0 0.004378197503836596 0.04512739156848929 0.0
24 1 12.00161771015139 8.044965938879377 0.0 -0.0541106777084813 -0.06797462404809959 0.0
25 1 15.376354698602961 19.649340638887814 0.0 0.0937913207744261 0.0646052178420718 0.0
26 1 6.4108580167057445 16.870732912605593 0.0 0.0009682762654398334 0.05787790197615581 0.0
27 1 5.271936038345807 12.580842180142792 0.0 -0.010195443168716374 0.04003905141546347 0.0
28 1 9.792127404399192 15.860021061620909 0.0 -0.062219243493344366 0.10648660270652094 0.0
29 2 5.276256938854017 1.2592771866130876 0.0 0.09288149464099728 -0.04963284583746732 0.0
30 1 18.653691671530435 12.147610355304291 0.0 0.020736852947622165 0.12766413267237847 0.0
31 1 14.699642986418889 13.770405606931778 0.0 -0.0546448190303904 0.0007498877084246156 0.0
32 2 5.75977699682344 17.94952038321286 0.0 0.016481027541620084 0.027168520161151687 0.0
33 1 4.240166680668432 1.4387691429692067 0.0 0.014350877015193886 -0.03959292757365465 0.0
34 1 19.000056464341796 15.680440061576736 0.0 -0.06032711942032673 -0.046479996592019825 0.0
35 1 16.895753127451272 9.88036151816491 0.0 -0.1549529341440144 -0.06371185365905364 0.0
36 2 3.545054039063305 8.203530801850121 0.0 -0.030324859041482303 -0.12156445430396651 0.0
37 1 17.871450945762103 6.034107143547656 0.0 -0.027796907904023137 0.0835969832518816 0.0
38 2 11.658007800850177 19.694792075166966 0.0 0.05504688036894309 0.07103689607624028 0.0
39 2 18.971569932181616 18.364479351789896 0.0 0.022085116236904814 -0.12447427356360033 0.0
40 1 14.029191740605478 9.953143417628134 0.0 -0.15428087649905747 -0.07585624256161193 0.0
41 2 15.560174156184072 17.680509129368133 0.0 0.06313871904567893 -0.028267947699901836 0.0
42 1 17.4594044912331 11.63735938003417 0.0 -0.03639607408281578 -0.009719625819340516 0.0
43 1 7.95340783038751 5.5119298440021085 0.0 0.12743265747696553 0.0449986178169987 0.0
44 2 1.922479459498867 2.541652428961716 0.0 0.009122929699645614 0.023450352424549632 0.0
45 1 18.637364592413437 7.0445214163294265 0.0 0.11467816118874892 0.019194022474650647 0.0
46 1 3.7922116041017877 11.313764143075483 0.0 0.11559558990247114 0.1076341918622641 0.0
47 2 10.528661922826402 1.7319592740258343 0.0 -0.03565695851274507 0.07555257605975214 0.0
48 2 2.4446686355960736 13.079553380327148 0.0 0.0032171050288894356 -0.06984351413144418 0.0
49 1 9.441609650311289 5.107588184539317 0.0 -0.041224547873772395 -0.05393505305563322 0.0
50 2 13.734168592899973 16.372878251522863 0.0 -0.055568295411600285 0.005890493518886693 0.0
51 1 11.209104670489275 9.093102378671928 0.0 0.12624611122348445 -0.0405669769367997 0.0
52 2 11.044358266374207 10.200050012228049 0.0 0.008884155714599357 -0.1261966638209239 0.0
53 2 11.684359770919846 15.913656489410824 0.0 -0.10923115148799545 -0.03298065059745675 0.0
54 1 0.8796886168700329 18.691007015026866 0.0 0.0005003216896764737 0.028312231650792594 0.0
55 1 7.005184884952083 4.72713983645007 0.0 0.16413928312775514 -0.08421667010984364 0.0
56 1 14.057596963467079 11.302099664674035 0.0 -0.06690575791747963 -0.08146703852572397 0.0
57 1 10.11758630881675 5.274963792770401 0.0 0.13321032221241727 -0.070197573612537 0.0
58 2 6.386152580329075 0.7681930213441237 0.0 -0.07198708135257074 0.06153026971656304 0.0
59 2 6.319012149516648 10.621272835308996 0.0 0.07424131923679925 0.03788055746488895 0.0
60 1 5.943037808381666 5.932323266722774 0.0 0.08959075706039508 0.03482379671589713 0.0
61 2 8.994746528174803 12.351927411336167 0.0 0.034342447422603686 -0.01262607524928762 0.0
62 1 17.465534064431797 14.383949527797814 0.0 -0.05421578500702366 -0.06697675315945313 0.0
63 1 14.699200209132613 11.879597792668678 0.0 -0.04006615704054779 0.051064627998952984 0.0
64 2 1.0337263088625899 0.03435641540915318 0.0 0.032725017675280826 -0.06376745418525616 0.0
65 1 9.378747233223242 16.42311819474733 0.0 0.10501364098469972 0.016270886196763708 0.0
66 2 13.972848756502444 0.8811551188265109 0.0 -0.045212699391569085 0.04350103388255564 0.0
67 1 1.8538532191241315 18.932905841806257 0.0 0.07458593267371917 -0.0005694358345790468 0.0
68 2 3.6227473280608744 18.805997690275607 0.0 -0.05991663702115012 -0.010000990889781802 0.0
69 2 12.98448644980001 12.00244704042037 0.0 -0.03020848493441339 -0.03877216707589496 0.0
70 1 5.390942874897123 9.078981575513897 0.0 -0.07628845535720978 -0.04431069435421256 0.0
71 1 4.752999670452159 3.5645189805580295 0.0 0.042320772230322705 -0.08286682061818136 0.0
72 1 18.836329341528415 12.803604550713853 0.0 -0.10944336864142773 0.00415550557090546 0.0
73 1 18.387149874543102 15.405402689495428 0.0 -0.012708230920415505 -0.11840458690280925 0.0
74 1 10.775260780795024 5.037425559852035 0.0 0.054416417685058206 0.11738267157318631 0.0
75 2 8.748349828153172 15.48525531031961 0.0 0.07537862347958307 -0.04159368816697124 0.0
76 1 19.031142410849867 7.592127818146168 0.0 -0.17233593977201503 0.17460128758210797 0.0
77 1 16.800961912635188 13.278023547107269 0.0 0.02564832351182483 -0.07157812727702942 0.0
78 2 6.986779136573185 3.026511378737207 0.0 0.09585889522861978 -0.029983627762644367 0.0
79 1 2.894563443460524 14.290404184065308 0.0 -0.05562947014288642 -0.07606559603106677 0.0
80 2 10.922333382697081 11.429995284835325 0.0 -0.08904696213953212 0.007502885542329773 0.0
81 1 11.793264965117183 3.026157600639664 0.0 0.024619097687458683 -0.00625000307721418 0.0
82 2 2.1598276625291257 15.245206177231655 0.0 0.02991903319528733 -0.08518763035940281 0.0
83 1 16.549548373466845 15.273648190817498 0.0 -0.09019764745422051 0.10728817543424686 0.0
84 2 17.745747981297075 12.735148005664351 0.0 0.049175738930200254 0.011487304339238377 0.0
85 1 16.739901509386083 2.019967601626599 0.0 -0.039297020542942304 -0.026616948842784736 0.0
86 1 8.313585691249504 4.930269439091567 0.0 -0.14133307916668944 -0.06958695260912495 0.0
87 1 4.383856829076752 10.994035944654183 0.0 0.08623748589118757 0.046677590493878256 0.0
88 2 2.188861548274403 11.874926165412173 0.0 0.040873003206703715 -0.0500843602679431 0.0
89 1 3.602290127507996 14.241048761216996 0.0 0.029626684874432554 0.033206872570209406 0.0
90 2 6.116907534802503 8.126365191679044 0.0 0.022323124991462093 -0.008452452511089174 0.0
91 2 1.3101807642559202 1.3362848532495024 0.0 -0.00439745409936515 0.05411513881675824 0.0
92 1 7.108611774189774 16.885900250473856 0.0 0.06290042750748255 0.06644671622017545 0.0
93 1 5.475818290958558 0.17131551832427758 0.0 0.02475516515942492 -0.10736362008809612 0.0
94 1 0.17468095719098103 9.400987506767578 0.0 0.06870457901130375 -0.03771425039492255 0.0
95 2 13.52322508474745 18.565310906359628 0.0 0.003612931225516955 -0.042068809764323464 0.0
96 2 17.802533242985923 9.267047539442189 0.0 -0.05294155763794826 -0.07913695011968934 0.0
97 1 3.348452510136922 13.624472630821653 0.0 -0.08095460553488149 -0.055651559779207264 0.0
98 2 8.24827745742859 16.605669051167403 0.0 0.09118912209663828 -0.017304771839247727 0.0
99 1 14.0595543967153 11.990961546119845 0.0 0.009788964371831277 -0.12820071052519355 0.0
100 1 1.0365915595628066 14.774171563067505 0.0 0.10149766128564702 0.04856234884770523 0.0
101 1 12.59260817448681 8.41130703959588 0.0 0.07352674537954115 -0.05802928560984585 0.0
102 1 10.49562816885231 15.81664028921594 0.0 0.06100379698196566 -0.04425381041856199 0.0
103 1 13.5241545503409 3.900938248201859 0.0 0.1662843693709348 -0.09176731971034138 0.0
104 2 7.29262587024778 15.796575009929025 0.0 -0.01477520330488073 0.040545458595678076 0.0
105 1 10.241713151427517 4.625804550667996 0.0 -0.11782998475972922 -0.027925768391064004 0.0
106 1 6.629327323467197 13.318476700134127 0.0 -0.12179889499064624 0.013067556091211654 0.0
107 1 16.874414991252777 11.283218783753098 0.0 0.027412990617526323 -0.012355564069845087 0.0
108 2 4.761517183630153 15.520632381095243 0.0 -0.025758507010784085 -0.042577227221466896 0.0
109 1 4.20306812735627 14.540058537457648 0.0 0.02399857445717132 -0.08738362154896463 0.0
110 2 7.567590140412256 0.43516706245204306 0.0 0.03908913821748805 -0.06761712462498286 0.0
111 1 12.080120524117865 2.3552860207136623 0.0 0.04039151491821032 -0.03672339628167124 0.0
112 1 12.613900565704348 16.434098775547376 0.0 0.05957650953961442 0.016206945356208834 0.0
113 1 14.80705489905655 12.528825010901977 0.0 0.056029756213533684 0.07948337626149402 0.0
114 1 11.416020078574423 2.423537327138299 0.0 -0.10512776632250354 0.13082132407961894 0.0
115 1 4.804192354102144 0.2944825645864525 0.0 -0.03722966323352314 -0.07011660154017414 0.0
116 2 19.091689786093784 4.805856082966741 0.0 -0.06657333929800444 0.07132644614005207 0.0
117 2 19.06084017063675 11.15351881239127 0.0 0.10444633632253171 0.024884499397343048 0.0
118 1 3.534676409132335 3.8458077700480064 0.0 0.006577369792956643 -0.053148451009619777 0.0
119 1 7.6379166605604265 4.9423258253628335 0.0 0.00972978978302211 0.0293511522712827 0.0
120 2 0.49817650720477596 13.827290241135534 0.0 -0.024290286359273296 -0.0012693990570578307 0.0
121 2 0.006802637824169652 1.0980811129497006 0.0 -0.025848490678725362 -0.013408468857074366 0.0
122 1 14.658519742865579 15.511512506093732 0.0 0.03182008184965337 -0.03973210178356817 0.0
123 2 10.79562120660802 6.132256279761927 0.0 -0.02943875544515254 -0.03981579770221703 0.0
124 2 13.072849453770278 10.751020629930672 0.0 -0.040210080125489 -0.12031643545568659 0.0
125 2 15.794692902987094 11.966396624187865 0.0 0.042052040891765494 0.04789422200967056 0.0
126 2 10.682413883490645 13.73195840234444 0.0 0.018886477869314425 0.013503746394394183 0.0
127 2 10.947874352442632 18.632266169646204 0.0 -0.024472746281716487 -0.035847069341789044 0.0
128 2 13.832893696769657 13.055821584664011 0.0 0.04615809335595119 -0.02565874410884209 0.0
129 2 18.019183009425923 7.978028876512876 0.0 -0.10164590119634387 -0.048384457878152674 0.0
130 1 17.08530016662189 15.629971779848582 0.0 -0.12545849155398267 0.12615068904160634 0.0
131 1 10.727503694075008 0.6440505428261711 0.0 0.06548516559395182 -0.01890952868763161 0.0
132 1 6.7354164601859 12.626114123753297 0.0 0.04267485250955932 0.12272015760769903 0.0
133 2 0.26982494260496054 16.14199541950376 0.0 -0.024278401899774774 0.053410649906167215 0.0
134 2 14.482891278915126 4.403751730092742 0.0 -0.007695082359627236 -0.020479914792003125 0.0
135 2 13.964748389341539 5.540968568093394 0.0 -0.05844109306749462 0.020168698804031313 0.0
136 1 13.43565600922843 14.08308398377759 0.0 0.06665998547537602 0.008964187450353326 0.0
137 2 15.262020091427935 1.016962919174462 0.0 -0.009170869789342808 -0.058463756079450695 0.0
138 1 0.881399641404143 5.8615946862645005 0.0 -0.01812231547120296 0.19223202423246558 0.0
139 1 2.4728826144333445 9.470897600356505 0.0 -0.04606576184511431 0.03601828247965539 0.0
140 2 9.795712027318526 10.56582124681297 0.0 -0.009995884969004472 -0.02874199871318119 0.0
141 2 19.619652368152465 17.330663944944707 0.0 0.009810882212141589 -0.004380470512327805 0.0
142 2 10.420412301877494 17.48718918064263 0.0 0.023411936472771847 -0.022376747099274338 0.0
143 1 13.428547576244705 19.635597457134477 0.0 0.060297860776935296 0.06365533659610524 0.0
144 1 1.5048459904390534 17.645164369852523 0.0 -0.012930566393573402 -0.18181835912066566 0.0
145 1 17.92664079033919 6.822555608494409 0.0 -0.005318054077708546 0.06447691747755 0.0
146 2 7.641205637564741 8.933981754905439 0.0 -0.029533516323325223 -0.03371240716865946 0.0
147 2 11.835880525163574 6.788691644785704 0.0 -0.07323034956501688 -0.0005680543959391863 0.0
148 2 16.227863403243372 6.290574121474587 0.0 0.0678296130985948 0.009812164409267712 0.0
149 2 19.112204896110093 2.621090550146797 0.0 -0.021720526548037314 0.0487324327091354 0.0
150 2 4.025239975806007 16.577499778593157 0.0 -0.037452468434671295 -0.02456906940847505 0.0
151 2 12.202530046198296 18.433121572429013 0.0 -0.0364336899659232 -0.05256552426368413 0.0
152 1 8.69026329460286 8.65402828434334 0.0 0.12086454130263954 0.07042641768747288 0.0
153 2 9.134640560739324 17.54558135017725 0.0 0.05762218952319852 -0.08417482897252891 0.0
154 2 2.761061328917048 16.400597020391036 0.0 0.026569209512770333 0.003755472204122438 0.0
155 1 13.761920444007389 6.633579443167185 0.0 0.02243299477503464 0.02871133096516679 0.0
156 1 17.003265078152346 8.50292465192877 0.0 0.10752179989933981 0.03664469343710077 0.0
157 2 4.3568144101865185 4.589497471161357 0.0 0.010612446145745025 0.01282867129380619 0.0
158 2 10.340740192462853 8.185005416408037 0.0 0.05213206003562942 -0.045108049936722766 0.0
159 1 15.890403982799093 15.239374385660247 0.0 -0.026553268003387996 0.0411611271739595 0.0
160 1 18.961371574100294 16.386227432846866 0.0 0.03864482095187145 -0.03748785735487592 0.0
161 2 19.728260245117124 3.695038260474549 0.0 -0.07969499041203566 0.011858842524689548 0.0
162 1 17.758897680268216 15.603455366916654 0.0 -0.027346966164354853 0.01937847559295453 0.0
163 2 11.688492710065505 12.603255775321841 0.0 -0.04000464699449232 0.013861058600507077 0.0
164 1 16.05844918987326 3.8774169068692808 0.0 -0.023130940595129375 0.05965820849324033 0.0
165 2 5.8270584586149266 3.5253672167623646 0.0 -0.022216766794907496 0.12359353975145039 0.0
166 1 18.867591362860278 14.94564254343979 0.0 0.1041452181529189 -0.08089341668952021 0.0
167 2 7.769080332482409 14.640726388182141 0.0 0.011888890732843601 -0.023169828282658074 0.0
168 1 4.2423618668920735 0.7227913750129558 0.0 0.00979926718088929 0.020221604930559824 0.0
169 1 3.6740722037657036 1.129454951472472 0.0 -0.1410744293944258 0.056226921128837495 0.0
170 1 12.264028367075442 13.566559852795736 0.0 0.08742151414418413 0.03712440851669851 0.0
171 1 6.396628592664563 6.416562727551965 0.0 0.0187986614429962 -0.04487533754942361 0.0
172 1 9.852270627800111 18.417682723239118 0.0 0.12128912053921515 -0.07391257659982442 0.0
173 2 7.386685666029617 7.71048578497953 0.0 0.12084368235272078 0.08363723983918053 0.0
174 1 16.27413756526041 9.636911261202238 0.0 0.0344224451611295 0.0451639220924758 0.0
175 2 16.324228083254084 14.243543219532725 0.0 0.009307597928172045 0.06288772406408269 0.0
176 2 10.095489539067549 9.377475434034288 0.0 0.07198777398592444 -0.041833459754034456 0.0
177 1 8.678622459451834 0.23378409862229135 0.0 -0.04706815740169787 0.14768052793019368 0.0
178 1 4.653902250998879 12.306601315347661 0.0 -0.1364239431636569 0.14014824560012107 0.0
179 2 2.9231541401671377 6.904224177676617 0.0 0.03444131553596885 0.043591166390932974 0.0
180 2 7.586617318179655 10.17575007682149 0.0 -0.11516071644296133 -0.004337165932153778 0.0
181 1 5.9914472969075945 19.437239475766546 0.0 -0.064272028211152 -0.10642659784627218 0.0
182 2 1.1987739161574966 12.723134541863619 0.0 0.01624599354614315 0.01997920039094913 0.0
183 1 0.8106720109145336 6.569693569425021 0.0 0.0672900503062724 0.014896743640011504 0.0
184 1 17.315325296199287 18.697455072607518 0.0 0.0017476692523596177 0.0658510285819622 0.0
185 1 9.151321978116197 7.960133649538167 0.0 -0.1450531340406864 0.03828040846435872 0.0
186 1 11.728265632218159 13.919764809263201 0.0 -0.04013236383998709 0.04229768040822241 0.0
187 1 10.872186020798237 7.245235488008962 0.0 -0.07633349588817775 0.06268546929591087 0.0
188 1 6.4997746975396336 7.065027313388809 0.0 0.06103465618253543 -0.007267433839850853 0.0
189 2 12.956899736397311 2.9928460150262652 0.0 -0.01791136178807148 -0.013751373152338786 0.0
190 1 19.365313326695524 7.042992025041189 0.0 -0.08146531841126901 0.04349059506355142 0.0
191 2 15.081189344146077 3.348040899419383 0.0 0.01601515339811609 -0.020792967222866544 0.0
192 2 12.828267312233942 6.088441147962194 0.0 0.020367490721746415 -0.019053924465872007 0.0
193 1 19.494894368052947 15.197008545549354 0.0 0.005543034865897718 0.025431196465051938 0.0
194 1 2.3791348380960375 10.159248149222103 0.0 0.006493470952423864 -0.0798661242714469 0.0
195 2 16.182907989462393 18.841461110206467 0.0 -0.1396223719883963 0.11919374048003649 0.0
196 1 13.983446773917938 3.403884741259434 0.0 0.03449723088859747 -0.04593148551628137 0.0
197 1 8.453875473282729 5.9411254718320965 0.0 -0.14729133319588128 -0.03362199884375349 0.0
198 2 11.180459348311988 3.9897610797407004 0.0 -0.012480275850494814 0.04252879177667248 0.0
199 2 15.63058795817483 2.2392906585163304 0.0 0.0029238350636288987 0.03540241465726737 0.0
200 1 7.160696449584104 5.40929093266804 0.0 -0.15722386752858353 -0.09501846494944172 0.0
201 2 18.365836051361654 17.29460146962635 0.0 -0.014195673323791303 -0.002024754960485368 0.0
202 2 1.462709578498993 8.344058059755579 0.0 -0.028823213436560254 0.018816096754557952 0.0
203 2 0.46963861955692343 11.71227966229271 0.0 -0.012895138671169587 0.043997308893926806 0.0
204 1 3.127480131751309 11.320075257243438 0.0 -0.07156783089573579 0.023380916887776233 0.0
205 2 2.624519741291198 1.482285819960756 0.0 0.052551509522025065 0.004690748449546614 0.0
206 1 0.9293147837247852 17.309440507158538 0.0 0.03813175021014675 0.022792867756159005 0.0
207 1 2.0571185414019375 0.5277063099870278 0.0 -0.0977843988810926 -0.037644560118344716 0.0
208 2 10.036864089100094 19.50394956002973 0.0 -0.03183757994007669 0.00855298948416727 0.0
209 1 6.704252846744045 11.663693019442233 0.0 0.025976621214469385 0.053329489563933755 0.0
210 1 17.56379496042779 1.0064530286909965 0.0 0.0028707582203368596 -0.13643962133835089 0.0
211 1 1.4218321511519658 6.2415221271007315 0.0 -0.1597512430104974 0.10446358123676013 0.0
212 1 10.077476229379183 16.448749152989297 0.0 -0.12722181126763613 0.09460592676393834 0.0
213 2 5.431112096261553 6.94829110556557 0.0 -0.023561188348138855 -0.08819551670211764 0.0
214 1 11.861682110900103 9.462280520048271 0.0 -0.05020378248010937 0.022531181953060263 0.0
215 1 1.0607980746365682 15.417375375957961 0.0 -0.02161873238113692 0.11840777280670056 0.0
216 1 16.009254087842848 9.007383486482711 0.0 0.08601729574214619 0.09552585396896082 0.0
217 1 6.441698894375949 18.831490756759592 0.0 0.007479501776116544 -0.011903371673917109 0.0
218 1 16.317199021300684 0.7647715293357917 0.0 0.04475432084127964 -0.025113385827304772 0.0
219 1 10.741934942128074 16.453128642937326 0.0 0.021980850039502682 0.1208988697708324 0.0
220 1 15.322302093985238 15.564906831659053 0.0 -0.04402871226595296 -0.0002527380699798818 0.0
221 2 10.473617361231664 2.977979934580269 0.0 -0.027208491930594294 -0.06879092191510136 0.0
222 2 5.899691817748962 4.84078022607163 0.0 0.1933301254536185 0.055473248545920166 0.0
223 1 0.5094542681713446 8.848138667457258 0.0 -0.10289960074036575 -0.0029313188138793043 0.0
224 1 12.777390002398862 15.781041403259174 0.0 -0.0036574138004471187 0.02428995619821397 0.0
225 1 7.1830461922008615 13.729706696322328 0.0 0.07131076859567961 0.04652228443058109 0.0
226 1 0.88447471658265 17.99784815283001 0.0 -0.030125618234548065 -0.17947124089022504 0.0
227 1 19.344099828522797 13.226599932872332 0.0 -0.15237755759870597 -0.004206638088426515 0.0
228 1 3.6864020485748665 1.7991802323241048 0.0 0.08541300260786606 0.056347499437003644 0.0
229 2 4.408845368429428 13.394874210407844 0.0 -0.033992946422250585 -0.0397112971087178 0.0
230 1 2.479157659145066 7.942892591356449 0.0 0.06215392062311804 0.004342351829911885 0.0
231 1 16.117208440664378 10.30062329193325 0.0 0.008167603280553425 0.05350026457038158 0.0
232 2 9.383917966360652 2.202458769055841 0.0 0.008191365626259703 -0.01542853339633315 0.0
233 2 7.456471675456297 6.474745026494037 0.0 0.09667766339296446 -0.15642754053935903 0.0
234 1 2.1062063511210307 17.31420867113559 0.0 0.06573160168605505 0.05810407345758632 0.0
235 1 17.19853713187059 14.981861627177901 0.0 -0.008753147856313858 0.006437026873871178 0.0
236 1 16.182378829604417 3.2259001047082694 0.0 -0.004867862279089037 -0.16332904941038384 0.0
237 2 4.261896864884031 9.240431966120465 0.0 -0.07463010979329 0.08889969297829359 0.0
238 2 18.46588048678793 13.900639802475936 0.0 -0.03289810886777058 0.04357298336131564 0.0
239 1 8.844648277453338 14.388213056322957 0.0 -0.014311304285819173 0.003497235047922899 0.0
240 1 5.478966881547196 13.22799331081926 0.0 0.18962918641037665 -0.06421913444679571 0.0
241 1 16.652175007416126 2.723512080369664 0.0 -0.08520318770385203 0.059733003365426134 0.0
242 2 17.378246026965154 16.634427803920367 0.0 0.03216148961415009 0.06572421312096033 0.0
243 1 6.249169340207946 12.169491014788015 0.0 -0.020490013049160687 0.017289326004264752 0.0
244 2 9.591234699738141 0.8908621479521618 0.0 0.050759952051430315 -0.02641257690826358 0.0
245 2 5.127222937017859 10.172889354719835 0.0 0.019961700114197383 -0.03271410915002918 0.0
246 2 0.33883192406367085 10.45964699329079 0.0 -0.0697522366830825 0.08061256399844953 0.0
247 1 4.1962876935854805 0.005704162054734598 0.0 -0.01662702175981963 -0.010090417054618108 0.0
248 2 11.118840974171993 14.868818568411296 0.0 -0.005006828909653647 -0.039664416120379596 0.0
249 2 14.817307503348532 18.700026851680892 0.0 0.1097511339028849 -0.06387054432218262 0.0
250 2 17.099000393697747 0.011816219853165819 0.0 0.004510344587196081 -0.010097466510475033 0.0
251 1 11.948089569382343 10.820294109152334 0.0 -0.06029893734100937 -0.0229537780320838 0.0
252 2 3.1185155666088993 0.23121376971132881 0.0 0.057434333684080366 0.09647948604781756 0.0
253 1 14.122821221879473 14.11883498487495 0.0 -0.02102964150342872 0.029194438355778642 0.0
254 1 12.702193753649984 13.049880457313272 0.0 0.07936453811390214 -0.0640877639603441 0.0
255 1 1.5938017937244588 13.713433421922101 0.0 0.04537715259649928 0.16667055555952337 0.0
256 2 19.602738961759563 19.43372068109507 0.0 0.0071682294497892205 0.020204590462583567 0.0
257 1 6.7571665776014775 17.46702565341338 0.0 0.12207648208551196 0.0633574199896077 0.0
258 2 19.12845594849754 8.660625777825228 0.0 -0.042788090345524186 -0.045609573658863985 0.0
259 2 0.5909654528373891 4.801977429726422 0.0 -0.061898145718570254 0.12013059092250754 0.0
260 2 14.293672557756006 2.3069654394773904 0.0 -0.092046013359645 0.01278649529418551 0.0
261 2 4.906593071769353 5.7359936815425 0.0 0.06724186523129104 -0.0497708659560411 0.0
262 1 17.22435080426875 5.766336812147775 0.0 -0.03738898561695157 0.060839528050046755 0.0
263 2 3.217016628097357 2.7677430262776697 0.0 0.06313245783133976 -0.11433179899935088 0.0
264 2 6.43797906063439 9.37529306704064 0.0 0.08951988444937306 -0.04371377515325617 0.0
265 1 0.07364300703441833 12.769866493639219 0.0 -0.06130423837008384 -0.016630857045306976 0.0
266 2 7.84455300537204 17.760197578161463 0.0 0.022751877533057546 0.03281228178941672 0.0
267 2 11.843565254334582 5.24737806769034 0.0 -0.10071971803545313 0.06548178598653297 0.0
268 1 12.770722839691548 19.36520682145092 0.0 0.0416824258081655 0.057069914989673336 0.0
269 2 15.678894273075366 7.497305680683217 0.0 -0.07015795792318981 0.05638256806881097 0.0
270 2 12.414144313674004 4.065562177722861 0.0 0.015169421594532165 0.046961320515259496 0.0
271 2 4.860762735563038 8.10644604047698 0.0 -0.006171672233985051 0.027077451025251956 0.0
272 1 1.7906121650544837 6.801821958548567 0.0 0.013083155973473086 -0.0813110789363335 0.0
273 2 7.764414540483018 12.148190237559403 0.0 -0.11497023454540369 0.05214826449426898 0.0
274 2 9.877448510237851 14.772677859263126 0.0 0.02847100610423553 0.01731426535379348 0.0
275 1 18.090545223331706 0.5923330306463722 0.0 0.027783965200205207 0.049906194543953654 0.0
276 1 16.349897210732387 1.4407320684960105 0.0 -0.034338515795631123 -0.05513620036196122 0.0
277 1 6.585057999979581 5.766459858149017 0.0 -0.08420194245677598 -0.010830704108298493 0.0
278 2 13.094258349956052 1.8073561211488076 0.0 -0.03299361855067996 -0.007285189496562027 0.0
279 1 15.265844355658711 14.89271159607844 0.0 0.0095933974651367 -0.1280779206362665 0.0
280 2 14.857498608040746 6.5373744093443324 0.0 -0.03639667103501558 0.012686839776831814 0.0
281 2 17.13937173998441 3.757988705525424 0.0 0.018457067617597116 -0.044093153711438175 0.0
282 1 0.3658862482246297 8.188981958935813 0.0 0.10170409980313587 -0.13411049508223385 0.0
283 2 12.967980843979355 17.44528536950038 0.0 -0.027845406378044238 0.020619857991969182 0.0
284 2 17.749563038977353 2.6329338920237357 0.0 0.026171718372333615 -0.032414267004687906 0.0
285 2 15.159131398632637 9.733802909946936 0.0 0.007371318240987126 0.056381900412455006 0.0
286 2 4.434824597106526 17.79205021562325 0.0 0.11218833369666897 -0.03392072125177292 0.0
287 1 13.898596488857326 8.655032466375848 0.0 -0.0426262219657219 -0.006311413437750431 0.0
288 1 16.690618009708537 9.116138296697047 0.0 -0.03087887250751726 -0.11157666572273464 0.0
289 1 18.33730178386377 16.084619471839144 0.0 0.12869289020083619 -0.05007604523261772 0.0
290 1 6.7805610405024686 4.0963738903853715 0.0 -0.10121341132196751 -0.0010148229653887373 0.0
291 1 0.2740613306875503 7.014843784499606 0.0 -0.028683592996657594 -0.06227369948742974 0.0
292 2 6.506138554396489 14.569848375412935 0.0 -0.018771435620189274 0.029023865392326893 0.0
293 1 6.034317206571114 13.579323231435307 0.0 0.09689491924480005 -0.07320315140228675 0.0
294 1 14.63372686975032 14.58472744907575 0.0 0.11444382200838686 -0.07788532974398807 0.0
295 1 4.35179942637223 11.685371333460775 0.0 -0.09392933036382198 -0.13774724406147693 0.0
296 1 13.96076061503019 7.967737770579252 0.0 0.013551358730915522 0.08385162611022677 0.0
297 1 17.9132330322293 14.908663875179714 0.0 -0.06796832165666462 -0.008749965235246095 0.0
298 1 13.403182823755582 4.567874726406081 0.0 0.058740659165266364 0.16009545572503173 0.0
299 2 3.704828784611836 5.875099218288458 0.0 0.002985571279587461 -0.0017956140810972117 0.0
300 2 4.175172783941735 7.041499346582812 0.0 0.0014705319963538193 -0.005791173787313939 0.0
301 2 3.502348912031061 10.250512904378024 0.0 0.0053901560346085505 0.009136161849482176 0.0
302 2 8.5639224699179 11.099206242224028 0.0 0.06665307744477098 -0.02030302072546121 0.0
303 2 5.418112572333032 11.478815610519412 0.0 0.013447204191598004 -0.016771698799311986 0.0
304 2 9.118392853373297 3.471960991242174 0.0 -0.03354792334693899 0.06456833150886174 0.0
305 2 10.348721969597621 12.548530982479889 0.0 -0.027805480456079775 -0.03305982517646828 0.0
306 2 1.500121077657088 10.862307808527081 0.0 0.07025299420622604 -0.02118529708409422 0.0
307 2 16.51638459982886 4.912646790579578 0.0 0.05463807625653381 0.019116455610848234 0.0
308 1 15.579018568048644 4.337123390182194 0.0 0.0608217532250927 -0.07225367335528057 0.0
309 2 16.172183286073892 16.31418202309261 0.0 0.11996747251408237 -0.07970528020857888 0.0
310 1 8.892462433875691 4.578593149536516 0.0 0.02111784307362838 0.18485515495257382 0.0
311 2 8.86205867478986 18.877636005840852 0.0 -0.009899692543034917 -0.026461665403237886 0.0
312 1 14.095129467062472 19.535036091773176 0.0 -0.00817784379174348 -0.004296463334161653 0.0
313 1 2.08126889399988 6.201897936750303 0.0 0.10812037342513865 0.07231086625738219 0.0
314 2 13.659764074555307 15.129716094498331 0.0 -0.024094256161057922 0.07221975463639987 0.0
315 2 12.688678780181856 0.6722679447648767 0.0 -0.06050279852877052 -0.04492833628434105 0.0
316 1 12.01868500551593 11.50415268751043 0.0 0.003683825024778478 -0.06439905386595657 0.0
317 2 4.978032055662066 18.954873126535084 0.0 0.04106635306424642 -0.00188370296282569 0.0
318 2 9.497194146444308 13.498131415385725 0.0 0.020871132034703404 0.01921073941971257 0.0
319 1 14.549577560917381 7.592259969905555 0.0 0.05461160243282775 0.18116534082568495 0.0
320 2 8.55906808042826 7.019112497861842 0.0 0.05024651686663058 -0.018866897562700793 0.0
321 1 7.2365255886478 11.20461235585365 0.0 0.1421683084661426 0.04334485606695957 0.0
322 1 7.233559666285987 13.071758421246349 0.0 0.0831099911769261 -0.05972795114452052 0.0
323 1 18.48038185470485 5.734413958990274 0.0 -0.03745145745850049 -0.009806162267150661 0.0