ITEM: TIMESTEP
0
ITEM: NUMBER OF ATOMS
400
ITEM: BOX BOUNDS xy xz yz pp pp pp
0.0 19.7609 0.0
0.0 19.7609 0.0
0.0 10.0 0.0
ITEM: ATOMS id type x y z vx vy vz
1 1 19.655143585977147 12.711038073891084 0.0 -0.025108095771451313 0.06150617484413572 0.0
2 2 11.709446683351018 16.226489064670925 0.0 0.00424293597607967 0.06631842839657472 0.0
3 1 3.124639229329077 1.9329886141144805 0.0 -0.015032152916612666 0.04606042344044769 0.0
4 1 10.655624116059887 7.103767917223583 0.0 0.10080114492323511 0.12928442124850723 0.0
5 1 7.834436841111105 5.3012536100494945 0.0 0.03277493083357616 -0.015947645095476127 0.0
6 2 5.765918431391814 9.48440377160683 0.0 0.0065222881292701625 -0.05845571188646102 0.0
7 2 7.5296734737275255 10.959120296837757 0.0 -0.049161289487279956 -0.020716782330105016 0.0
8 1 2.650009572932557 13.61799378359118 0.0 -0.0034749761132185078 -0.06789947516093768 0.0
9 2 8.655498099680612 1.6928407333927251 0.0 0.007134624247948618 -0.03235832563798614 0.0
10 1 3.6773550776530097 7.006038137143776 0.0 -0.12326202841046048 -0.03706524988834586 0.0
11 2 3.522963586679803 8.088027277017543 0.0 -0.07073464994667517 -0.012965650208753704 0.0
12 1 14.218391099067517 8.13277223040488 0.0 -0.02579941877713852 0.06022776941364852 0.0
13 2 6.7851778957397215 8.521156796671411 0.0 0.008960640790021677 -0.04003009296834741 0.0
14 2 17.4845106641515 12.3232567738027 0.0 0.025201794574379766 -0.0749030702531614 0.0
15 2 15.815637277103551 18.562459137337193 0.0 0.05898242765430604 -0.036546123147249594 0.0
16 1 10.451264717967588 15.6678294460575 0.0 -0.006506888071594635 0.04037575580986248 0.0
17 1 6.462628604249423 12.336274326138039 0.0 0.03873270905388478 0.09100075979813056 0.0
18 2 4.990670395053595 1.4873505289921645 0.0 -0.06324023771918728 0.0061130534499305896 0.0
19 1 19.116450304133835 12.337040958602575 0.0 0.12539966442092243 0.05234589736405344 0.0
20 1 2.8050539056693027 10.365726129264068 0.0 0.06733828703745783 -0.08544798120277168 0.0
21 1 0.9942846285773892 6.9169159022113975 0.0 0.011732790510076379 0.053420351730532466 0.0
22 2 19.10566445903604 5.29728876545804 0.0 0.03287017092993503 -0.1607800687001828 0.0
23 1 6.668160976189593 16.36607379515808 0.0 0.029888190593939382 0.06163836424443737 0.0
24 1 7.086519884521014 7.442600274222397 0.0 -0.028103301802844774 0.04217522451603219 0.0
25 1 5.475788366394 3.8150613633550305 0.0 -0.10139699427252384 0.1491134191837447 0.0
26 1 18.161258086701487 18.51469357474266 0.0 0.08940067189662963 -0.013407484473706323 0.0
27 1 9.135997883366517 8.475718665335538 0.0 -0.03775679891770615 0.07030594383633604 0.0
28 1 15.2294802701341 4.523414385921811 0.0 -0.030559515589491666 0.03342161929692177 0.0
29 2 4.36019567269141 3.7206391040820703 0.0 -0.044484664958172174 0.046587333107241724 0.0
30 1 4.915373820309177 15.21850150337104 0.0 0.003965628615354735 -0.011285189836401989 0.0
31 1 3.3089035192786342 16.350167479067228 0.0 -0.040693226660119465 -0.09442223267245178 0.0
32 2 14.53798312633037 13.997714377943518 0.0 -0.059964216488268676 0.09100402340064032 0.0
33 1 2.9993317120096514 7.062859416112769 0.0 -0.08433854318198326 -0.25438801501109165 0.0
34 1 8.307451138813787 6.605039060147109 0.0 -0.10323669995132975 -0.037131483801274574 0.0
35 1 7.63693358499397 7.833576892545339 0.0 0.026145785744447467 0.05438191374408324 0.0
36 2 17.515245239782885 7.747855284303589 0.0 -0.02060328818320261 -0.0570540283961152 0.0
37 1 3.154836603469921 14.120098583097146 0.0 -0.021873493184323217 0.13275561376814934 0.0
38 2 2.5287269230237945 0.9638504014343316 0.0 0.009165246567748541 -0.041512489842931766 0.0
39 2 10.639645023477945 4.244785895181313 0.0 0.04474493930316798 -0.004240520034245651 0.0
40 1 9.608050939151482 7.891495571104795 0.0 0.10157364855563158 -0.01318970562728773 0.0
41 2 13.816565450977306 17.726065516437316 0.0 0.04834254824015257 0.09208453525859726 0.0
42 1 0.13167315980853642 14.757903238488643 0.0 0.0853728634454527 -0.06922678062248187 0.0
43 1 13.811160177248754 9.04762735095352 0.0 -0.0014438434851133629 0.027500223093738778 0.0
44 2 19.456097746461623 1.7984998618279229 0.0 -0.05407459169913499 -0.00928124276058461 0.0
45 1 18.068150474059063 5.615229663954235 0.0 0.07181108927305904 0.17408904204310144 0.0
46 1 1.621278843312945 9.722435693401264 0.0 -8.059766017709381e-6 0.06738179184708154 0.0
47 2 3.1327190047801308 3.0952097817074513 0.0 0.07955203383349901 -0.021457197927942602 0.0
48 2 5.57404285812853 14.305610680155871 0.0 0.06019872608892852 -0.03061178237059033 0.0
49 1 12.167002706072324 0.8470641510460329 0.0 -0.08761941307423485 -0.07054255900756255 0.0
50 2 4.241775412704042 14.320440960511366 0.0 0.03796347063936963 0.005173800113367826 0.0
51 1 3.915082241665656 16.03139250255655 0.0 0.011938864222941317 0.05359633966575886 0.0
52 2 0.26988348419589125 11.667884561016848 0.0 -0.010336655159191797 0.0767079664825266 0.0
53 2 15.051251676819145 3.4143769824364605 0.0 -0.011166643210755356 0.06248678042563162 0.0
54 1 2.796811649653025 6.368759857363498 0.0 -0.0358116512127691 0.12865156025108557 0.0
55 1 6.9184961671502645 17.60021368394052 0.0 0.023571153645842023 -0.059327092431901624 0.0
56 1 2.749679938785368 4.107642080097265 0.0 -0.1425214514403955 -0.029878268687940895 0.0
57 1 8.637190634318376 7.204274378001455 0.0 0.11155325733115216 0.14017661664312536 0.0
58 2 0.08421050143935131 6.300322191605912 0.0 0.10701475685475731 -0.03785016479359279 0.0
59 2 10.194530034667924 8.807639537536707 0.0 -0.05056272923655107 -0.06876134163161372 0.0
60 1 0.6473493661616302 16.89684062371912 0.0 -0.13315982899611553 0.057581750259477156 0.0
61 2 18.897014468432015 14.253445885146673 0.0 -0.005595325866225008 -0.029623317650988315 0.0
62 1 16.318350660338325 3.7238942779715307 0.0 0.016419979089008385 -0.11127967648120755 0.0
63 1 7.580025366203892 3.407091091585655 0.0 -0.030997142941103076 0.024527510093801993 0.0
64 2 17.847770484556193 13.556089129109138 0.0 0.060675230998159975 0.08616738525435863 0.0
65 1 12.706516765242558 3.465666940263635 0.0 0.1288320802531067 0.09956901843556734 0.0
66 2 16.161676669273437 0.083092911647345 0.0 -0.05457844649178298 0.03035371398815104 0.0
67 1 9.95622453133315 19.52721594491613 0.0 -0.08020429831051372 0.03315537728183876 0.0
68 2 8.80187907308469 12.885982412677455 0.0 0.00924687168154117 -0.03628136943958866 0.0
69 2 9.6226369225441 10.787968401477963 0.0 0.0449646759328814 -0.0914116343082564 0.0
70 1 0.6849382752122641 18.338422127994512 0.0 0.1116441145881477 -0.009647130430468807 0.0
71 1 8.55633243164114 10.504844405048638 0.0 -0.03595214877634618 0.07054797670017598 0.0
72 1 12.204866315924596 14.313469239894983 0.0 -0.00817307455379123 -0.04354101421188737 0.0
73 1 6.488120699310706 17.06923592134057 0.0 0.16597237464495593 -0.04431519996772355 0.0
74 1 14.433607702451118 8.79644417948385 0.0 0.14913370400250014 -0.04283233683318582 0.0
75 2 3.707635214831085 10.988016232822712 0.0 0.016579890301242302 0.08044743113715047 0.0
76 1 1.2983666512426013 18.685339970452123 0.0 -0.0068627208754743685 0.014707391478573854 0.0
77 1 11.503573045420689 0.9094161929991224 0.0 0.017326651405357812 0.04885504268971648 0.0
78 2 12.325705801897737 17.309775735498768 0.0 0.011750946971507229 -0.031110803277887282 0.0
79 1 14.225779206993396 12.913109508973786 0.0 -0.1390675593378271 -0.08960082924998201 0.0
80 2 1.6716142311858089 6.015228125830534 0.0 0.019131651942281166 0.004877148293435089 0.0
81 1 8.908642526847894 5.915127279889879 0.0 -0.031930436808648294 0.1440391599772886 0.0
82 2 1.5454771777991498 13.849189435294624 0.0 -0.046859395718741245 0.04333387905920098 0.0
83 1 18.442142318404052 2.3979493806031416 0.0 0.08205363369943272 0.009436286332165329 0.0
84 2 12.260717235969103 5.350303302522491 0.0 -0.05340541127552342 0.03847413347991207 0.0
85 1 13.655754132430777 7.736469887068675 0.0 -0.1023503383619953 -0.06065375436170382 0.0
86 1 13.933687190027632 4.971426381402607 0.0 0.11984163691713984 -0.017249658162004782 0.0
87 1 9.334372566585284 7.214665045132571 0.0 0.017753683980707625 0.16446579156885105 0.0
88 2 10.025586694132915 13.295954239921679 0.0 0.032878135716980485 -0.04233700100346872 0.0
89 1 7.9491708842606625 7.208325361189967 0.0 -0.007077762069140828 0.1158409224528882 0.0
90 2 2.0437009006937354 2.119303948168402 0.0 -0.08023888711412117 -0.0832556774222952 0.0
91 2 16.353737897957963 7.294098510387408 0.0 -0.04419804642662629 0.07666623634750733 0.0
92 1 7.155661417154836 5.275266462457256 0.0 -0.09488451375100763 0.09940955878234704 0.0
93 1 1.3894639000777032 10.356143577409815 0.0 -0.10390584502580665 -0.006680500056007317 0.0
94 1 18.069104400400946 4.933373265950497 0.0 0.036243536738832724 0.08873177805449435 0.0
95 2 15.801360948071565 16.418819322404243 0.0 0.00592977275042285 -0.027992365354004175 0.0
96 2 14.568957627177573 16.68860501743573 0.0 0.0981307316727012 0.06332372310294589 0.0
97 1 8.14846401098971 14.962649167465013 0.0 -0.06523887275672395 -0.03949278678533633 0.0
98 2 9.039706533022828 14.142531646934088 0.0 0.005009774879607804 0.07030249466079985 0.0
99 1 14.66511097290667 4.9020539090229445 0.0 -0.03338671181325177 0.0151819884310693 0.0
100 1 7.517633175810232 17.905272358314747 0.0 -0.04793453171590452 -0.10717506346359557 0.0
101 1 12.814753873019098 1.0893813408918966 0.0 -0.019870301845152906 0.05691042718984278 0.0
102 1 15.558272795589998 17.485240776279195 0.0 0.009466503266333137 -0.16691462541961052 0.0
103 1 13.098239318232919 11.141608689514344 0.0 0.04394152146475287 -0.039778368420674316 0.0
104 2 0.6656091329627808 3.626684374350566 0.0 -0.019187701219117302 0.03225120802197212 0.0
105 1 17.77045127347774 2.256750697350041 0.0 0.05086238058064874 -0.031803016798671944 0.0
106 1 1.0119512564150428 15.516015764193215 0.0 -0.0075373318469857545 -0.08338905030384028 0.0
107 1 19.055850302981188 4.109173763723894 0.0 -0.04758331143260852 0.09636990178039609 0.0
108 2 6.266926001459427 10.719130676303838 0.0 0.04698764205986567 -0.04767423443891004 0.0
109 1 10.010759473509742 16.211754418284436 0.0 -0.13495047118917977 -0.059798939253752924 0.0
110 2 5.580141741244259 8.177470336267472 0.0 0.010304446518212424 -0.006355846470554117 0.0
111 1 0.46768463074018884 7.350295411863212 0.0 0.08422114749368072 -0.06642704495167878 0.0
112 1 1.4638296153693016 4.363017278270377 0.0 0.007352497222839133 -0.15683704858148945 0.0
113 1 5.284766467677336 5.083552765153248 0.0 -0.05477878679044301 0.03253139194876271 0.0
114 1 7.025080846042973 15.795088267165646 0.0 0.04824421969496452 0.1082465348465489 0.0
115 1 11.6916005449165 6.300144113573103 0.0 -0.14994174788530798 0.02712207875328488 0.0
116 2 8.551734035048034 2.948739673349715 0.0 0.04773041641376067 -0.006347278169869823 0.0
117 2 12.053362139486365 1.9444305287373722 0.0 0.026911929942780338 -0.07808145708584029 0.0
118 1 10.536020058067166 7.77309073541741 0.0 0.14052704600154198 0.10382405243213902 0.0
119 1 7.435735317503941 19.66332146915436 0.0 0.034888301409308556 0.03622307143910184 0.0
120 2 3.0880811250968105 19.572453159789116 0.0 -0.010334627098267345 0.02344014751307175 0.0
121 2 19.013340000714802 9.32269880589815 0.0 0.08001512733297621 -0.0058211275009643565 0.0
122 1 2.804867700599213 9.672882824785438 0.0 -0.0029042819173686605 -0.23762900243628207 0.0
123 2 8.564886436729621 17.721593853297158 0.0 -0.07774822367258132 -0.048896947473252884 0.0
124 2 18.316617087920257 1.2941537308101017 0.0 0.14281927885310158 -0.017229143426172402 0.0
125 2 10.798834013608511 1.7372513883294862 0.0 -0.09382735840131211 0.06018182889810565 0.0
126 2 16.681255706399142 17.618544662518588 0.0 -0.08932606299530334 0.004047613723275086 0.0
127 2 5.976810231814695 15.488243546923147 0.0 0.009279800073871039 -0.1373538059615118 0.0
128 2 8.37470403120297 0.49447205734574223 0.0 0.04529502822743046 -0.0467432194786522 0.0
129 2 9.758192353443135 2.442772739669288 0.0 -0.08453025474906704 -0.008733762968669977 0.0
130 1 6.706080052343496 11.713832825977388 0.0 -0.0017602796032175254 0.0437823580953728 0.0
131 1 13.056923194529801 8.019629522702404 0.0 -0.03853964042494749 0.04333434097740039 0.0
132 1 11.694740413978112 10.37209982469479 0.0 -0.11589391355195865 0.009830143185858356 0.0
133 2 4.295354695367822 12.10318682572342 0.0 -0.018066969299631638 0.008477448831817787 0.0
134 2 8.387948749285167 4.237966052770149 0.0 -0.020546418882365754 -0.057802733959329194 0.0
135 2 19.37150944856954 10.586662256987339 0.0 0.022640499742357087 -0.05262044740171215 0.0
136 1 3.4134388959189943 4.273434564605 0.0 -0.06199857291385071 -0.04673355136057055 0.0
137 2 17.030867010159795 5.247887819545639 0.0 -0.0384127324813233 -0.000996153822820211 0.0
138 1 4.196952641048007 19.744210772424996 0.0 0.020974394476390802 0.08389020523843269 0.0
139 1 10.51478695521995 19.096345092225853 0.0 -0.017538442998248895 0.07460464710991783 0.0
140 2 4.502352112288806 8.813267933940146 0.0 -0.09255778786286573 0.06678644345952263 0.0
141 2 14.663512776130489 11.848867369051828 0.0 -0.020226393526497712 -0.06301169754340667 0.0
142 2 9.305378857620871 15.359451802867857 0.0 0.009662275921300293 0.039530746867062344 0.0
143 1 3.423768353483786 9.24328905552058 0.0 0.10727912994782858 -0.14425945841633067 0.0
144 1 19.22783569983508 19.185920612551804 0.0 0.05524123656260636 0.05877668304885692 0.0
145 1 3.921638856339206 16.74904288417706 0.0 -0.022070666185513236 0.05569233634455178 0.0
146 2 16.479398876641188 15.267958235122116 0.0 0.04655180445866613 -0.013563759253584173 0.0
147 2 6.241422667552139 1.8814549012934627 0.0 -0.026913989127587537 -0.009454406846761132 0.0
148 2 3.6379011498490095 13.15801973412558 0.0 -0.05571910158434034 0.04248315861009922 0.0
149 2 13.337597211136714 5.959993520303953 0.0 -0.06841088435145616 -0.000642005203257008 0.0
150 2 13.293148753962544 14.294267858616271 0.0 0.035317321351882855 0.02439047412884915 0.0
151 2 7.840541097563219 13.796650783392318 0.0 -0.025620177768753184 -0.09383272020468322 0.0
152 1 9.14258687275508 9.183829302660893 0.0 0.11584084781329183 0.08666261336907571 0.0
153 2 18.82237010213641 17.575569618565442 0.0 -0.016384623369991122 0.06503127493880907 0.0
154 2 5.3136213539063535 2.7432017020722173 0.0 0.056556126609600486 0.03845846662900711 0.0
155 1 17.744789612778956 17.98058685857319 0.0 -0.01751860609782644 -0.014119115244616965 0.0
156 1 11.184265153703238 17.20936104575981 0.0 0.1116138123749616 -0.007417313255887169 0.0
157 2 9.484086792850137 18.550785155362966 0.0 -0.02690646801342482 -0.0221183915800707 0.0
158 2 12.528815868456176 13.24245310808216 0.0 -0.03517738290469661 -0.003027969848808434 0.0
159 1 12.39602805058125 7.937362172602656 0.0 0.05661559823489673 0.05472805426932123 0.0
160 1 17.515286339764863 2.8954722703600018 0.0 -0.15134350269866823 0.05114283348315695 0.0
161 2 18.2229179183234 19.622883787614107 0.0 -0.004915391104565722 -0.007417148721846025 0.0
162 1 13.766120444427221 11.196739594713579 0.0 -0.05271027323198248 -0.07655811408993786 0.0
163 2 10.670740108579011 9.949608132288002 0.0 -0.015241062342919586 -0.03678730250095441 0.0
164 1 6.682321037788757 18.984791572300477 0.0 0.032186601438990305 -0.010503032340797894 0.0
165 2 12.845174598942641 19.759316341421325 0.0 -0.09015955128160962 -0.04751895341109094 0.0
166 1 11.953940116221336 10.990439069231362 0.0 -0.004937423345803218 0.011426336942584832 0.0
167 2 4.924482245453289 13.212695065906479 0.0 0.02392393244436037 -0.08171346796076596 0.0
168 1 16.420784981728275 2.52359449517467 0.0 0.1267067962318984 0.005109607613080332 0.0
169 1 8.524621016792203 5.325736482254397 0.0 0.15474956109619495 -0.024618458632448676 0.0
170 1 13.661609931158916 13.284555772410764 0.0 0.06729144936936671 0.16155843683613727 0.0
171 1 2.0203195122106385 11.422072190714779 0.0 0.21439652702735276 -0.013884167500764167 0.0
172 1 11.756174920989581 9.681386240125642 0.0 -0.057157857135555 0.04057640427109856 0.0
173 2 15.863968577889585 10.687309793463784 0.0 0.0323567830785809 0.006401689168638968 0.0
174 1 18.19657903455188 3.0534019654758224 0.0 0.0018120360092265145 0.09075183580141986 0.0
175 2 15.198723024418737 6.877082174001723 0.0 -0.0775188982229717 -0.029112014775021094 0.0
176 2 11.378366260193125 15.030436765848659 0.0 0.07485837991390092 0.06992414305407692 0.0
177 1 5.173743668658061 4.426601471677779 0.0 0.0716126648266237 -0.09773028187298563 0.0
178 1 7.65976411173072 15.52649751889902 0.0 0.004055059634635832 0.016614097220784496 0.0
179 2 3.851622393447018 5.916118176595215 0.0 0.084433360519754 0.046493512588620195 0.0
180 2 0.5300725236107614 19.44121640495987 0.0 -0.025463309232828576 -0.05523082870525671 0.0
181 1 6.406672536159853 7.471210085047159 0.0 -0.02173901670177246 0.012746736603378375 0.0
182 2 7.680168550508421 16.740311816731808 0.0 0.03482160445849305 0.015192895827595232 0.0
183 1 10.54203959642026 0.0674667413409737 0.0 0.003436126452744485 0.001441282599395356 0.0
184 1 14.277699507455868 7.448414606669027 0.0 0.011532893751041787 0.0031406442492364147 0.0
185 1 12.757510168967768 2.803238596357416 0.0 -0.05085163910407514 -0.026559259346865927 0.0
186 1 12.492219380613161 11.452208944758432 0.0 -0.1396058888369958 0.07456511475607816 0.0
187 1 2.1391639744097124 4.394192383375769 0.0 -0.08438125980019415 0.14116859776884375 0.0
188 1 2.105136410167408 14.813625555382908 0.0 -0.016740707109774346 -0.10346188641392896 0.0
189 2 11.146188983076442 12.458513852703943 0.0 -0.011797845141740232 0.07454360694275686 0.0
190 1 12.562989425356225 10.741547576848065 0.0 0.0902424219090739 -0.029988673466080785 0.0
191 2 16.812110956383805 9.857200371082707 0.0 0.03384195622410652 -0.08757627397964643 0.0
192 2 18.709473588884684 8.050923699481762 0.0 -0.042138573143920714 -0.06623688190103084 0.0
193 1 12.136699990794492 3.072223764710248 0.0 0.013682685570553778 -0.017919882111703606 0.0
194 1 6.139561058280817 19.34468335907527 0.0 -0.04519806130949853 0.03341265214476623 0.0
195 2 9.539640428308656 3.6902982107573603 0.0 0.06780587599686645 6.264892904479277e-5 0.0
196 1 8.136667316070561 9.985554636149466 0.0 0.12458269437752531 0.007447364666223295 0.0
197 1 3.4196397990308385 9.922151537635315 0.0 0.0009238619044347182 0.11596462218693036 0.0
198 2 4.129526353389791 2.3656160548937644 0.0 -0.10102363458118335 -0.0008380514650594714 0.0
199 2 9.77777910489237 0.8979739964289877 0.0 0.05219033233404707 -0.16184579098830357 0.0
200 1 1.1152808749216754 7.591986662326727 0.0 0.002180493981834354 0.031230736435202116 0.0
201 2 9.574847044810458 5.017674370075517 0.0 0.10430284913503739 -0.06036386427441865 0.0
202 2 13.35944676085643 12.222894619047846 0.0 -0.028391823755704326 -0.06861102623831897 0.0
203 2 6.308142228286092 4.521909449262293 0.0 -0.006626604434148035 -0.11857537270647464 0.0
204 1 2.1630041661133363 12.829388329494256 0.0 -0.05602915500251556 0.025743605908458336 0.0
205 2 12.645004631225172 15.376379541193431 0.0 -0.03081509129906581 0.014589709004860934 0.0
206 1 1.9171616490055525 12.136567089970155 0.0 -0.16404790106811154 -0.15548474730449183 0.0
207 1 7.404267149971684 4.670487641489983 0.0 -0.009383526002237531 0.024099101344767764 0.0
208 2 17.361284413786738 6.4587375154361695 0.0 0.02567464613062736 -0.005274548569093594 0.0
209 1 3.2572427220268305 17.74627095582443 0.0 -0.06299387472878971 0.06324500874812211 0.0
210 1 1.9931432809136815 10.705353043424495 0.0 -0.04015921880638485 -0.06926062403746791 0.0
211 1 16.094404642863157 3.093714603683776 0.0 0.010682339991435957 -0.20106530725729102 0.0
212 1 2.533554092029882 14.30647631474352 0.0 -0.03285468305018977 -0.024681848875325426 0.0
213 2 7.452395247428961 2.2834755838581513 0.0 -0.0092510435503337 0.036436530925581946 0.0
214 1 1.6530497236880608 7.117104746249035 0.0 -0.10149448120200223 0.07734722504173279 0.0
215 1 2.5885958980304853 11.022176335488025 0.0 0.016562785735098322 -0.11657016678772275 0.0
216 1 7.05748400956191 18.38315169910708 0.0 -0.10504793236865316 0.01782306476355157 0.0
217 1 18.43914807671382 4.377016092496759 0.0 0.012303365006939007 -0.09509292648100022 0.0
218 1 17.73447669525973 17.29355658382749 0.0 0.04309660901437581 -0.04216893570038759 0.0
219 1 1.275662320493576 18.030091160016283 0.0 0.13168294981786932 0.024755396918036073 0.0
220 1 14.968106722876959 5.788740520214601 0.0 -0.12147736269056619 0.035485974590389345 0.0
221 2 7.0759106487948165 9.741425861085935 0.0 -0.0548791186782997 0.05151816150261724 0.0
222 2 16.257054819357755 1.4630840600942467 0.0 0.10094686043767478 -0.009036215307355922 0.0
223 1 14.340945542783057 9.468759331004348 0.0 0.025729152959861633 0.00013208461794083875 0.0
224 1 2.7082583138380096 17.386897848639034 0.0 0.05837494515093483 0.006304499346699029 0.0
225 1 2.2130601530991068 10.047062308589881 0.0 -0.1093572124612173 -0.042221735154363865 0.0
226 1 1.7716448504148123 4.950988411902064 0.0 -0.06164732190668189 0.08221794323180273 0.0
227 1 1.3700838723323727 11.032396575870097 0.0 0.09693708167647165 0.07266956040534395 0.0
228 1 5.384460588146647 12.176872026476824 0.0 -0.035887716580181424 0.02062131733980723 0.0
229 2 13.937030006420047 15.43423311183922 0.0 0.06901839610374333 -0.04176559949715686 0.0
230 1 0.12831368034597565 17.3086632955783 0.0 0.08893308130931532 -0.04385573520917036 0.0
231 1 4.745001955401741 0.4106337815962444 0.0 0.023801111449458012 -0.043261366850114606 0.0
232 2 4.958354394069975 16.35403399915095 0.0 0.059077721963815055 0.07654971406295774 0.0
233 2 16.50905061110325 8.610015190584337 0.0 0.03595138164536294 -0.020447921779824196 0.0
234 1 4.279601545332773 15.434059153706663 0.0 0.12319907679409979 0.08872786234114141 0.0
235 1 18.828837199285683 18.66710492526036 0.0 -0.06637184933954503 0.035029522541049574 0.0
236 1 6.756130911179339 19.66152128623516 0.0 0.03469243234638673 -0.0503419255509238 0.0
237 2 16.071742871142163 6.002197123879575 0.0 -0.05181145329654119 -0.021722478674634962 0.0
238 2 0.15003833542329353 8.395924387929586 0.0 -0.007251254876761287 -0.0019710013715818655 0.0
239 1 19.542453456458915 7.344434632727677 0.0 0.060222798168369944 0.029274532012859223 0.0
240 1 5.020921417411172 7.237182310045552 0.0 -0.1423315413161363 -0.1656155329066465 0.0
241 1 15.906855533015763 4.879242070466271 0.0 0.018573978231338942 0.04622241206944597 0.0
242 2 13.437836625395652 10.090140763828567 0.0 -0.05262637937579534 -0.06463556730158522 0.0
243 1 0.9235931585621137 16.21482482042109 0.0 -0.03973048090706546 -5.423659300058868e-5 0.0
244 2 17.74861156688962 15.01417829378778 0.0 0.023149603395654195 0.013837217188960915 0.0
245 2 1.0132281187038124 12.719931738403575 0.0 -0.06108424143557588 -0.01755715399887328 0.0
246 2 8.08518267762732 8.875595112611256 0.0 -0.059603591239269636 -0.09270756102439075 0.0
247 1 13.67367648812148 4.330568351488615 0.0 0.01172041409578464 0.03242683724841515 0.0
248 2 13.286045458609575 16.53234692420236 0.0 0.10749361944515039 -0.05016278381504021 0.0
249 2 1.894611581857184 3.341637023879267 0.0 0.05670432755223754 0.04227075556632146 0.0
250 2 15.437474298392733 9.408883068571592 0.0 0.018178481648918225 0.030651639402283472 0.0
251 1 17.075628140622328 2.366482392631317 0.0 0.01203745678425902 0.17039633261008869 0.0
252 2 1.1180226508123083 1.0551955910968394 0.0 -0.04776707714100544 0.04603775288258699 0.0
253 1 9.29038410203707 19.641435122067296 0.0 -0.08759026702417122 -0.04306839921385915 0.0
254 1 18.970569408342914 6.959069063161233 0.0 0.025579186508364785 0.06051070009986114 0.0
255 1 7.284501313646574 4.00739380714587 0.0 -0.03804089753700182 0.04157343597803249 0.0
256 2 18.44159427061602 11.487520431590811 0.0 0.03702091009595329 0.0312311781920505 0.0
257 1 18.480536992985364 3.698311118734266 0.0 0.06291112147786994 0.14233651715399906 0.0
258 2 7.1706790435426155 0.9629713755153876 0.0 0.033817084703493296 -0.01229298990223199 0.0
259 2 13.871210847955288 0.7109920205783448 0.0 -0.03371266293801599 -0.05598765092267498 0.0
260 2 10.068891468554938 17.362123633584126 0.0 -0.0261899023692437 0.011722815428030975 0.0
261 2 17.041651241098773 16.42949426024298 0.0 0.11325178389360437 -0.10639259237422113 0.0
262 1 14.400590689258149 6.160439069488706 0.0 0.009025787974055129 -0.061069070050680976 0.0
263 2 8.372793478639172 18.995547201587854 0.0 -0.09076399203392799 0.0448859566719957 0.0
264 2 5.981537393736745 18.19022911375812 0.0 0.007735144795799477 0.005171216080349589 0.0
265 1 1.4410717788982856 14.96809625671391 0.0 -0.029637702748894067 -0.10420009791217691 0.0
266 2 1.8131945782598131 19.648878861156042 0.0 -0.028505444671325306 -0.013279414419946376 0.0
267 2 4.5186600974686835 10.029948934688397 0.0 -0.05352730921229844 0.049575061590571824 0.0
268 1 5.860718178652862 12.621622063260869 0.0 -0.032313163411433754 0.038853332803549426 0.0
269 2 10.854196083387661 11.17970159559445 0.0 0.07008048673639876 -0.009228492688156061 0.0
270 2 16.57559760503526 13.204101012515643 0.0 -0.030571776052760763 -0.056749271142636025 0.0
271 2 1.3481097555282144 8.664679280290109 0.0 0.004092909933172649 0.08975437724196556 0.0
272 1 16.408385534321685 4.394997171590012 0.0 0.027469395618845417 -0.03365873997307057 0.0
273 2 8.986949306704302 16.563152615848562 0.0 0.016678293431064986 0.11706819299725366 0.0
274 2 0.2725102327243836 13.713910075844412 0.0 -0.027147703357594578 0.05696266292008197 0.0
275 1 12.348215119855986 6.459721504174491 0.0 0.024227402565038803 -0.03583496701192629 0.0
276 1 19.662928842214416 4.371165062637445 0.0 -0.02854330262725851 -0.045458600388229 0.0
277 1 10.014740545988202 7.354830668081224 0.0 -0.015775102170318873 0.0926282959635148 0.0
278 2 6.615665271132499 13.43144644122475 0.0 -0.020039751515822945 0.04084864879249547 0.0
279 1 18.30798021343416 6.974892539207964 0.0 0.022910204121767166 0.16676177658138613 0.0
280 2 6.179338486269252 5.73495938356674 0.0 -0.0257245408959924 0.05301089995912662 0.0
281 2 5.897584760351615 0.6342657319174048 0.0 -0.06430578851005303 -0.10525068181759561 0.0
282 1 2.1997913024925064 9.348464710364214 0.0 0.11434596207830133 -0.043662582187017324 0.0
283 2 15.80502835939557 14.188196394636554 0.0 -0.006898439775106544 -0.031938541735685146 0.0
284 2 18.274984826958306 16.339608893782145 0.0 0.06347676276984672 0.021878669832163113 0.0
285 2 6.478459797557359 3.227483098006426 0.0 -0.027558693138767465 -0.03585759548117444 0.0
286 2 5.042626211142497 6.144901248187436 0.0 -0.09668893562378945 0.047475720281805724 0.0
287 1 15.28978409713961 5.191986268972738 0.0 -0.0526192209309825 -0.10311927414793004 0.0
288 1 2.318713728138403 6.8795960822016005 0.0 -0.042075837991578005 0.0707590099776896 0.0
289 1 8.293118114379737 7.784341014877894 0.0 -0.11052846137336673 -0.0013720478895270574 0.0
290 1 7.332104150358344 18.994867983950783 0.0 -0.014450612543097945 -0.03051232003524402 0.0
291 1 3.882409598029127 4.770475394917652 0.0 0.09585573782673534 0.05134480223128655 0.0
292 2 3.929485557944234 18.590288977020528 0.0 -0.04840954186566427 -0.011488181430562424 0.0
293 1 8.28495994908159 15.730485076888659 0.0 -0.026341332295320655 -0.10276205551584684 0.0
294 1 6.264488656353512 6.811171951902668 0.0 -0.03360066563408837 0.04431838716001881 0.0
295 1 8.234463737115624 5.92020774909333 0.0 -0.05836732313842243 0.044161053095791346 0.0
296 1 15.738060007068672 2.500430140568305 0.0 0.13610048365045568 -0.06187668117492723 0.0
297 1 19.431846909916988 15.217096480450609 0.0 -0.020278503131156464 0.05574408802666338 0.0
298 1 15.797956340276146 4.190045431763346 0.0 -0.027890804159403586 -0.1595408009237393 0.0
299 2 3.153980938403696 15.233279855268055 0.0 0.07599126577980651 0.05055601808313098 0.0
300 2 2.831374521047609 5.225935100459008 0.0 -0.07072556685243489 0.04870939209713416 0.0
301 2 17.420314539412303 3.989184692522211 0.0 -0.06762342080272615 -0.05030336764922885 0.0
302 2 14.687544362742685 2.2039610077240264 0.0 -0.0459826259981549 -0.018054153543438506 0.0
303 2 19.51177443558512 16.28547103272483 0.0 0.21302452244255793 0.04865384785494514 0.0
304 2 17.11564442299932 11.113377299851647 0.0 0.00664141598654547 -0.017317142440917446 0.0
305 2 11.544019753540104 18.27624973658989 0.0 0.07524420411137646 0.021164556565884573 0.0
306 2 17.114493958331124 18.894369427737765 0.0 -0.06280493975616744 0.04688522159932303 0.0
307 2 16.114595293600917 11.95180304589202 0.0 -0.007374129836834287 0.12438864870864272 0.0
308 1 2.7824974712757324 8.976051308731314 0.0 0.05754319461538948 -0.003411138895306969 0.0
309 2 7.2514848113406485 6.358772418425184 0.0 0.04035366631701579 -0.11825209163035043 0.0
310 1 11.046159026506565 6.5476779714603195 0.0 0.003275064591485277 0.14025899635393438 0.0
311 2 15.303120456568898 8.119129984397015 0.0 -0.07301139720465012 0.047144164841499914 0.0
312 1 12.262571200392488 12.165673246234787 0.0 0.04990505466452168 0.14253840221513278 0.0
313 1 17.319354852271154 1.757647194155213 0.0 -0.06212792421199352 -0.049778313983784794 0.0
314 2 6.9681325279604565 14.684044930796993 0.0 0.02220170636314191 -0.018094946277482156 0.0
315 2 11.884583155814706 4.160193818367619 0.0 -0.005916018292690195 -0.007938907159980624 0.0
316 1 14.358082091452056 5.496513151921318 0.0 -0.07344712558475391 0.0006430094592388674 0.0
317 2 0.4978994771778585 9.650231535778595 0.0 0.077301437605671 -0.06376194863758987 0.0
318 2 2.3269893298579 7.967978018285508 0.0 -0.016136100288335415 0.014351457146207312 0.0
319 1 11.159272628631468 7.538269853250981 0.0 0.0392490105066398 -0.04589877724573496 0.0
320 2 0.8072000602547952 2.3921254659176165 0.0 -0.01331035357360146 -0.03824161082241053 0.0
321 1 9.542253556457014 9.71071038450469 0.0 -0.004056897701148146 -0.033188225488545775 0.0
322 1 0.709440979672724 17.64182104100323 0.0 0.08522678491887382 0.02432153267773662 0.0
323 1 11.852048874062966 11.645796013780348 0.0 -0.05216974539178383 0.07086362225726733 0.0