ITEM: TIMESTEP
0
ITEM: NUMBER OF ATOMS
400
ITEM: BOX BOUNDS xy xz yz pp pp pp
0.0 19.7609 0.0
0.0 19.7609 0.0
0.0 10.0 0.0
ITEM: ATOMS id type x y z vx vy vz
1 1 11.654109735800596 15.636235464374591 0.0 0.03520002183630946 0.1558122969105405 0.0
2 2 13.744336500967371 13.837906617930987 0.0 -0.013906636184592674 -0.16589999019785692 0.0
3 1 7.621379395327888 4.653391810260424 0.0 0.12571971690783354 -0.047766563703626065 0.0
4 1 8.380120967051004 10.650658188443026 0.0 -0.06939691717630646 0.021548112561349864 0.0
5 1 4.533884489447355 19.399698899914736 0.0 0.17165025934137335 0.10729117546302532 0.0
6 2 8.130518013076298 0.6144408685446447 0.0 -0.013819672115088227 -0.0801581952388971 0.0
7 2 17.202873263993492 6.218496336326126 0.0 0.07373421210101085 -0.05766838255775674 0.0
8 1 9.798757650647486 1.9334867469023995 0.0 0.005730856563049794 0.05935314463273776 0.0
9 2 7.588135622832262 5.792572166770916 0.0 0.031223663706256594 0.022734444005068803 0.0
10 1 13.797162280839258 12.739377894660242 0.0 0.041107412018125664 0.07374564663207914 0.0
11 2 6.350654857476728 6.0937795175687395 0.0 -0.06713601127436614 0.019986382451248067 0.0
12 1 19.430538618461465 2.7096107683916535 0.0 -0.0974226999582781 -0.07633646479726579 0.0
13 2 8.48404331674695 14.798089836406884 0.0 0.08112494487792969 -0.056635161280588604 0.0
14 2 5.467862302845735 15.001805167087934 0.0 -0.0513055694311635 -0.09873912619394802 0.0
15 2 10.638661422503494 16.104251621563233 0.0 0.04159942016068341 -0.11805250759346646 0.0
16 1 12.205477821067396 9.406077244637325 0.0 0.07866950674901722 -0.08411675800149088 0.0
17 1 17.53421537827257 18.005003484609617 0.0 0.07624802338487699 -0.042241032306962384 0.0
18 2 18.93782657803431 10.73338744592972 0.0 -0.0022214866806112344 -0.01024024912472445 0.0
19 1 10.045235447795154 5.938856782365322 0.0 -0.0398482009536896 0.02176399810030828 0.0
20 1 16.223837843765917 1.448220429400168 0.0 0.11967229748385608 0.06857004028563204 0.0
21 1 1.583535601476296 0.4139844457653937 0.0 -0.0032024718449871967 0.12339213473332566 0.0
22 2 4.646979664100204 10.853055506420832 0.0 0.06819449733348604 0.00823511559552383 0.0
23 1 8.63151449749439 6.205671728231723 0.0 0.07792417361051089 0.14135036890483282 0.0
24 1 5.680387926075709 10.479065230121527 0.0 0.032319897231344374 -0.00018446035863911816 0.0
25 1 1.8941998289317838 19.520662735396566 0.0 -0.04364362851025131 0.0184496028936704 0.0
26 1 17.02955673485634 8.442449129064805 0.0 0.18335565030506096 0.01902861937852948 0.0
27 1 8.305416798843872 9.982031830385125 0.0 -0.019387596307240542 0.027484263577621522 0.0
28 1 10.419107501378798 1.643469929546666 0.0 -0.0437760889052851 -0.024210663497079996 0.0
29 2 2.813958072435029 15.51786215558142 0.0 -0.017827289771464815 0.029156570805349908 0.0
30 1 19.677713812010172 5.609089421647833 0.0 -0.05458519877172995 -0.12401225181029192 0.0
31 1 18.163410911292427 11.534010987266509 0.0 -0.02667255814384217 0.0512074378390229 0.0
32 2 10.953642357116275 0.6273723596366467 0.0 0.06423993108554045 -0.01376331128075251 0.0
33 1 13.452719412064326 11.502080099318485 0.0 0.02851658893481028 -0.0052084051598298335 0.0
34 1 4.589052450230611 12.858411972799548 0.0 0.04361625662004784 0.029090847183809585 0.0
35 1 19.448388709147206 7.86533740248097 0.0 -0.04753897850376557 0.14110749135421774 0.0
36 2 6.165833885784649 7.35039822014585 0.0 0.004312380336450703 0.145311876794417 0.0
37 1 18.78086571207851 11.819857642438395 0.0 0.0553775119526577 -0.04765870643197877 0.0
38 2 13.351119298921805 15.05236238116882 0.0 0.011708564074307634 0.03256249214148993 0.0
39 2 0.25482699174168616 13.095641538841623 0.0 -0.03352851406467689 -0.0537062885977344 0.0
40 1 4.561568677613003 17.651209972819718 0.0 0.024909916627241617 0.09566124816776356 0.0
41 2 10.978885843784626 18.682807184610628 0.0 -0.0030202544938384137 -0.07525458173433752 0.0
42 1 9.147527877846207 6.642183208103396 0.0 0.05675151637047287 -0.07504433406946139 0.0
43 1 8.011341291721452 11.23159831930112 0.0 0.12123045102242029 -0.05911782674690254 0.0
44 2 4.017371543849172 14.937108167851294 0.0 -0.054135137514652966 0.06708811871730842 0.0
45 1 15.5445774384376 4.69646949768561 0.0 0.050075261687001736 0.04309474750761448 0.0
46 1 17.966925714151216 15.18004594793162 0.0 -0.033477085554569096 -0.016930658555280358 0.0
47 2 11.591554754893174 13.855398459110027 0.0 -0.043819871304147835 -0.07865878967228786 0.0
48 2 12.721911314830113 5.871900693347027 0.0 -0.07151163591215819 0.0008528643589744031 0.0
49 1 9.649783734253182 16.658320027064164 0.0 0.11739051244331038 -0.00033971661865555295 0.0
50 2 12.712824691592218 1.9007206108759052 0.0 -0.07916648328935606 -0.015023855571048503 0.0
51 1 13.610435231967125 6.573890220799915 0.0 -0.13427631249212957 0.0961404496940547 0.0
52 2 14.527519785303284 15.764670255119176 0.0 -0.007145411910766272 -0.007429689324529816 0.0
53 2 5.700636476283674 12.797086199002337 0.0 0.0019359727927591747 0.05925000046072396 0.0
54 1 16.218376384933254 11.63422210103509 0.0 0.09723435954464778 -0.10148961157339094 0.0
55 1 12.320452847955636 14.671664693980334 0.0 -0.03143500632811781 -0.0340855238320379 0.0
56 1 5.226773742583877 2.9831073160022767 0.0 0.06218543669789601 -0.08945457807795429 0.0
57 1 11.986379593215073 0.9902636071736011 0.0 -0.0004016970036081167 0.1270770055209209 0.0
58 2 13.574470475900315 17.631935068249145 0.0 0.017026164745958833 0.11144331481229647 0.0
59 2 12.438513828595976 17.127890333227896 0.0 0.029584393326671718 0.03724403928477343 0.0
60 1 4.913663932779627 16.437609367308895 0.0 -0.04193467539835673 -0.07752325433599894 0.0
61 2 6.975413532724147 13.085971238975597 0.0 -0.04838057410421447 -0.10312429309662241 0.0
62 1 15.833836260407356 8.205543867002756 0.0 -0.0733898768639966 0.15175299810616671 0.0
63 1 0.3376906363391221 7.773604428764631 0.0 0.1438348415523925 -0.07541278089474375 0.0
64 2 1.6378645442489161 14.998957141224256 0.0 -0.0052557241983272095 0.02490017497542165 0.0
65 1 11.903434689881697 18.0943986998167 0.0 0.06174661505775971 -0.18967870598901002 0.0
66 2 8.00188609237992 17.27300297583218 0.0 -0.025580834766103486 -0.01666293366930238 0.0
67 1 4.1182169525467875 11.832116471477033 0.0 0.03750010666525122 -0.020034600910642502 0.0
68 2 18.552976516368574 5.33330327621943 0.0 -0.043865194865146444 -0.011384340104975407 0.0
69 2 2.9501791210241484 1.9452837613409308 0.0 0.026565566207490343 -0.025754954780625994 0.0
70 1 5.178683517606658 19.412632576979266 0.0 0.0546683326069789 -0.09952042721973138 0.0
71 1 12.137606060948206 18.74484006659106 0.0 0.019180881477920058 0.006326989530319527 0.0
72 1 10.442895833067219 9.787687894997035 0.0 -0.02480132046384196 0.014276452447513249 0.0
73 1 16.265072990857906 18.18699367951293 0.0 0.08000905825745927 -0.1268189324262867 0.0
74 1 13.15017623990993 4.151864254317937 0.0 0.08647220147115164 0.04655112584890506 0.0
75 2 1.286165132825236 11.00517163812516 0.0 0.01864533972296695 0.02907640089363058 0.0
76 1 15.754603995195808 5.311590541262001 0.0 -0.03184478402024634 0.009631114479183193 0.0
77 1 4.575109459862315 17.008312243813585 0.0 -0.02527361863731467 -0.09597559056602854 0.0
78 2 2.590677220374441 12.893177761347614 0.0 -0.08771972875289914 -0.008368927409572721 0.0
79 1 13.70515336497705 4.5177998436560465 0.0 -0.022106430955146673 0.024989939056553074 0.0
80 2 18.436927860309652 17.430491174887752 0.0 0.05580394702956734 0.04215999603702345 0.0
81 1 15.678603286418408 4.05404841040099 0.0 0.015559022737116528 0.0002890754363491582 0.0
82 2 3.765892312282855 16.311331146980447 0.0 0.004157638519456224 -0.07495036155810599 0.0
83 1 9.833532983698042 6.5839387587975935 0.0 0.03900608416555285 0.015819048843152106 0.0
84 2 15.530167457924728 0.6064539219614744 0.0 0.03372322299067659 0.019034501068306908 0.0
85 1 15.13188415500648 5.613017026353145 0.0 0.04668099075905497 -0.06618423629193222 0.0
86 1 0.7878816334405313 7.284353940147288 0.0 -0.04731334209963928 -0.04292048003767278 0.0
87 1 18.68853130561346 18.513428338769142 0.0 -0.122247700544751 0.03147275066493499 0.0
88 2 8.643730560218646 5.118456846374429 0.0 0.038770772303717546 -0.033605383625840236 0.0
89 1 15.435444300319318 19.18737992862418 0.0 0.05837827483656314 0.2208977519062986 0.0
90 2 15.08441833041728 13.837631124038229 0.0 -0.04804186407597101 -0.006659356398675393 0.0
91 2 6.100934262578695 13.971061108539674 0.0 0.0254674547668853 -0.039939649971392106 0.0
92 1 13.440983755172999 0.31244239282139197 0.0 -0.04675553936852833 -0.04954948370189717 0.0
93 1 16.669087826005846 2.6903378630451167 0.0 0.07530218379049444 0.09972625565386922 0.0
94 1 15.529563504517888 16.178302096025767 0.0 -0.03793284231438262 0.03134761996319338 0.0
95 2 12.774084271341637 8.442018759909203 0.0 -0.004681059991867825 -0.04048425332825335 0.0
96 2 2.384117066653486 10.404958606275043 0.0 -0.02525872091934669 -0.060382171871147416 0.0
97 1 0.0739145769338804 19.06124119207317 0.0 0.019251898844893194 -0.08632525370552832 0.0
98 2 9.23374787337224 7.729687941430325 0.0 -0.038298291708989615 -0.042621266603955314 0.0
99 1 8.135126122553126 7.503475185984481 0.0 0.05236533601997518 0.05831305672312571 0.0
100 1 12.299839340267411 16.011141435530423 0.0 0.16019887371181835 0.03849639584277122 0.0
101 1 4.3541314823784205 8.744556950529136 0.0 -0.09026096675628337 -0.12905394684306887 0.0
102 1 14.331043516340985 16.81348805034924 0.0 -0.06347973549755646 0.06685468010038843 0.0
103 1 19.42460738023786 15.042438750529236 0.0 0.020747962664356988 0.00560212355576287 0.0
104 2 1.2868349642906867 12.317367326445568 0.0 -0.030390038178154166 -0.031265149201996245 0.0
105 1 8.251223071529465 8.180938083622042 0.0 -0.0005609653530572307 -0.14490852219180886 0.0
106 1 13.78521426238347 8.781176660507231 0.0 0.07146397126659695 0.13550033207948994 0.0
107 1 2.5654536287245393 19.33448941881766 0.0 -0.2552036396319805 0.07314887204891109 0.0
108 2 17.253361135189472 1.7855909473652098 0.0 0.0418916243524484 -0.013554896681831208 0.0
109 1 11.665018090578442 19.534734320321906 0.0 -0.08297189683120597 0.005885085801669397 0.0
110 2 8.332640993112255 18.50230027695693 0.0 0.05494213222463901 0.006381958227670447 0.0
111 1 16.373633716558647 8.569955003746898 0.0 0.026258464397208806 0.0013952374896024527 0.0
112 1 9.430972107397478 2.534671213645177 0.0 0.07448122809589533 -0.025644425942501763 0.0
113 1 7.811175865107989 6.897461655267606 0.0 -0.01121405051173012 -0.01795122537063729 0.0
114 1 11.712206573212216 14.961381435154891 0.0 -0.0064989213419817185 -0.03404683342723383 0.0
115 1 12.102701260521581 0.31067141605596876 0.0 0.09898931752174457 -0.10225804802756411 0.0
116 2 5.610556171952755 11.583070544834243 0.0 0.06558141785274282 -0.13705078087923125 0.0
117 2 9.031259585486437 19.538225245849112 0.0 0.06352417695589672 0.06126159381131739 0.0
118 1 14.997043673927122 1.545941060058182 0.0 -0.07629573489751623 0.011590925037182688 0.0
119 1 1.1810966966199283 19.656901810773903 0.0 0.02440325564301893 -0.13495120185743467 0.0
120 2 8.361375947001882 16.095825798358085 0.0 -0.001265259552485377 0.005881940626021525 0.0
121 2 17.884835220203662 13.387760466674953 0.0 -0.03962030693975616 -0.011716422128824682 0.0
122 1 2.126179785957206 3.9347704108449197 0.0 0.0680385652698519 -0.014447617790970865 0.0
123 2 0.5435934416625725 15.737478731940069 0.0 -0.028229696305627484 -0.03209935056007443 0.0
124 2 4.374533499881424 7.594803099758666 0.0 -0.09820963719852752 0.04115200254489141 0.0
125 2 10.221845629421123 12.154931939622836 0.0 -0.0028294959668958026 -0.04978274460596327 0.0
126 2 19.11803436793138 14.010170655249633 0.0 -0.03800922244380173 0.023058436001264913 0.0
127 2 19.30760517040919 0.30660566968416747 0.0 -0.05023199840360836 0.004366268569590832 0.0
128 2 6.074852654790058 0.2212781656114212 0.0 0.08573001589679344 0.09166093700564619 0.0
129 2 10.85841294320793 4.086789383014332 0.0 0.0015177112290911874 -0.050558607764694334 0.0
130 1 17.34063463870421 2.8877668001145924 0.0 0.09123926647948688 0.018140824371299158 0.0
131 1 13.139590524060333 10.891624273300316 0.0 0.10706151095310135 -0.14952470980120686 0.0
132 1 7.115985030558838 15.952218391297745 0.0 -0.028656206527748782 0.0418139557208267 0.0
133 2 14.005320391267338 5.544035574403148 0.0 0.09626595050677904 0.04751592088565941 0.0
134 2 1.7822875457726743 16.27580766689285 0.0 -0.11417691770806238 0.007214060664248497 0.0
135 2 3.813194044445594 6.339869125502765 0.0 -0.007237641808960596 -0.050795496974971016 0.0
136 1 12.27395586874545 15.340890141238019 0.0 0.1743640824782258 -0.022157257509663943 0.0
137 2 5.008825095970554 9.614249568403892 0.0 0.04130285344361161 -0.001846162495422859 0.0
138 1 7.157957894770116 6.7878535137594245 0.0 0.0035772063165037784 -0.007397907193565327 0.0
139 1 10.172140528355786 19.52112232414471 0.0 -0.047035493023437645 0.00897571490370155 0.0
140 2 11.04465157660058 5.390610497569779 0.0 -0.05251868933665301 0.05858566676807255 0.0
141 2 12.70432943072091 7.166267913763905 0.0 0.04533403159939947 0.012358893507921501 0.0
142 2 5.3990301856361915 8.379512654570325 0.0 0.018292803106971896 0.00487541640613543 0.0
143 1 4.043554099634134 1.6629083302589598 0.0 0.04612197309223904 -0.03980975084102824 0.0
144 1 7.167604123896765 0.11756172895077047 0.0 -0.11395068355425265 0.018983209539589107 0.0
145 1 10.421348783773416 17.727679948114716 0.0 0.08436421731683637 -0.03890168337473298 0.0
146 2 18.65131389308349 8.62642839972035 0.0 0.023974839993020202 -0.006820811204384098 0.0
147 2 0.1611595231981432 11.591048601096505 0.0 -0.07150406034668189 0.029491387197145003 0.0
148 2 14.21140761775807 10.742463033727295 0.0 -0.06267005538220762 -0.03811702125192064 0.0
149 2 3.2891454574392354 8.508997887046391 0.0 0.07203377660000206 0.030474884028139658 0.0
150 2 1.9825655703444924 8.431648491636858 0.0 0.0020806321599903623 0.04178591245631692 0.0
151 2 19.46999671840842 16.68475655730287 0.0 -0.02372191110172585 0.0022909516080919347 0.0
152 1 18.490975580120683 12.432483330249275 0.0 -0.02803637976839482 -0.015635115118389015 0.0
153 2 16.732591380597324 3.792196624882814 0.0 -0.03828731424664271 -0.008317532888052336 0.0
154 2 3.4342665185178163 11.013586863966218 0.0 -0.05260998988466078 0.0224746449561065 0.0
155 1 19.088589612005006 3.284200334617882 0.0 0.07405019673482846 0.02623876387115875 0.0
156 1 11.800290687847168 8.908207718531818 0.0 -0.047106225908182746 -0.0047404554000696816 0.0
157 2 14.520153558375073 11.895714421970814 0.0 -0.0061822493605170475 -0.04357263552685028 0.0
158 2 19.63382968278487 6.731417829698529 0.0 -0.1004244865765603 -0.008320569307591216 0.0
159 1 6.644715812863114 12.02570890952782 0.0 -0.021969963945073147 -0.1480617713287648 0.0
160 1 12.832508478488721 2.98508850696943 0.0 0.09992847315725871 0.026352561097928516 0.0
161 2 17.663962357618637 10.51814562155275 0.0 -0.04631820685920729 0.0021381177345626925 0.0
162 1 15.641178019716277 9.66050758602235 0.0 -0.0661395558847536 -0.008261977238956013 0.0
163 2 2.599120735600124 0.7091555594593748 0.0 -0.004901657958928993 -0.018114789847303088 0.0
164 1 15.632737301838377 1.7516230284685905 0.0 -0.07279383140875001 0.028406148928637933 0.0
165 2 7.693927016115782 2.4411166483659774 0.0 -0.011823400306593504 0.06840262425724528 0.0
166 1 8.106708143828014 11.89768971346303 0.0 0.10858965575773875 0.058383930403436486 0.0
167 2 11.475602515519238 1.925154721142086 0.0 -0.10920155094957038 0.036090747165283356 0.0
168 1 7.916921894940577 12.52754936018987 0.0 0.030446353899159794 0.044729581711778044 0.0
169 1 17.87484858974901 9.433143894353748 0.0 0.046680057604215126 0.006603704523175183 0.0
170 1 18.20011453349307 14.554748279728202 0.0 0.03295762070301308 0.023727649908498967 0.0
171 1 13.253634407310948 0.9543015333046025 0.0 -0.06530049560216826 0.20483653282907247 0.0
172 1 7.6473119932841875 7.972077245976952 0.0 -0.11868738711546382 0.015824856336181938 0.0
173 2 16.781562671619124 9.57111394811892 0.0 0.03208767580220981 -0.0902299452075386 0.0
174 1 15.729687263640935 3.374935062427955 0.0 -0.08644331000495607 0.019327695910485884 0.0
175 2 10.515148888749888 2.760401411783587 0.0 -0.017691243454454247 0.04296314040063868 0.0
176 2 19.287973859821122 4.355207328475815 0.0 -0.03157264258356803 -0.1064305066534459 0.0
177 1 8.996701185981042 17.638010232864673 0.0 0.06555584640757585 0.04772562714567305 0.0
178 1 14.851689427013973 6.236349069974258 0.0 -0.08352408824372434 -0.08007080910907813 0.0
179 2 5.632458574530278 17.313953207113936 0.0 0.06987946810696487 -0.025992090333341916 0.0
180 2 9.525500445872359 15.553582253438975 0.0 0.04405816068209718 -0.03197640066239181 0.0
181 1 17.62770889766072 8.047642375490279 0.0 0.014767856159701064 -0.08513780038665214 0.0
182 2 8.17665106424563 13.58126709535707 0.0 0.030932969294997392 -0.07059509896125074 0.0
183 1 2.5844327425320626 9.348435180807947 0.0 -0.058306573366859266 0.035546591910908996 0.0
184 1 10.491193946705517 10.459717437139947 0.0 -0.027520556293460233 0.001654895605523412 0.0
185 1 15.991841300042175 2.7708096106874303 0.0 0.04788425351001777 0.0837307821371333 0.0
186 1 14.370684820839747 4.457789041039412 0.0 -0.14653234185618294 0.04236467941549064 0.0
187 1 2.7751863760305873 18.648654077261863 0.0 -0.05740438243154106 0.17063957650580666 0.0
188 1 15.052204731918891 16.764878529549517 0.0 -0.05287718163161437 0.04875084543887619 0.0
189 2 5.9594749300200505 16.102007876376607 0.0 0.07819497451223004 0.03808617481639962 0.0
190 1 5.000194634907399 18.176574052440927 0.0 -0.06843065860039108 0.025099085840988675 0.0
191 2 6.319628439790063 9.593881585003263 0.0 -0.018392890728254802 -0.08696694455506898 0.0
192 2 15.540108968601077 12.63000292305768 0.0 0.05268554419924947 -0.01252830721307639 0.0
193 1 18.874209748260885 7.537717197134612 0.0 -0.008109805687675418 0.036871481621836996 0.0
194 1 18.200914643196846 7.6405855292970335 0.0 -0.0549374476002842 0.12073684462652493 0.0
195 2 9.391262593855611 10.220605387948918 0.0 0.0020225692505047308 -0.037167062178361264 0.0
196 1 15.94020256613402 10.98706765081548 0.0 0.02803824562325832 -0.08235150286595216 0.0
197 1 4.743851118289074 15.79039494406074 0.0 -0.006929625886718725 0.11540607332533531 0.0
198 2 6.307658456074302 2.5583972141292097 0.0 -0.0404762326541161 0.04602804516245075 0.0
199 2 10.768447194533499 8.733112292105062 0.0 0.049509479460649895 -0.06905882273704034 0.0
200 1 11.522956608478996 9.545856755568964 0.0 0.08822196236584659 0.050549586222897944 0.0
201 2 0.46547323736398094 3.4891491503489847 0.0 -0.026882499558793894 0.027267408574043847 0.0
202 2 9.617841337013916 3.6289528223910277 0.0 0.028195346303511643 0.022108399762613747 0.0
203 2 11.434185317530122 12.593563038006742 0.0 -0.04264606109219326 -0.028147339436924424 0.0
204 1 13.334268830962637 3.429955192465198 0.0 -0.023455783169386395 -0.05701001257985407 0.0
205 2 15.603634976154824 15.037382186786193 0.0 -0.006197581956106768 -0.01627768677908591 0.0
206 1 11.407994851671939 16.89476000077091 0.0 0.08579948138543675 -0.06391730578528414 0.0
207 1 19.139753843278324 9.646131989359123 0.0 -0.08168360752123666 0.05420844661656942 0.0
208 2 4.127306195900985 2.7652782923410113 0.0 -0.008066701226883856 -0.04175355260628542 0.0
209 1 11.417531472127981 17.614065555778467 0.0 0.038046075446624146 0.10632487609624486 0.0
210 1 9.584934996556804 14.43332133014917 0.0 0.02593655905278891 0.005367176343936175 0.0
211 1 18.024305979580497 18.461161828656465 0.0 -0.019103687104045766 -0.06573300130213401 0.0
212 1 13.82439822857036 3.8766300073259914 0.0 -0.02351071438104149 0.062468412654414045 0.0
213 2 17.12046912041554 14.501864950038165 0.0 0.04191879867026257 0.03929998526144002 0.0
214 1 14.287507313436295 6.6244708667906576 0.0 -0.03513257536423926 0.0348362539240422 0.0
215 1 6.291889239132789 10.736106743635341 0.0 0.013782611291956747 0.05240133682835623 0.0
216 1 0.5254268012434298 19.559618731257746 0.0 -0.008195689135679574 -0.05130776610572529 0.0
217 1 18.476412026416295 9.741792585017853 0.0 0.07801051639703446 0.008196724951347047 0.0
218 1 10.122899147802027 11.034587163007648 0.0 0.026382823329500937 -0.12294877710081077 0.0
219 1 13.901020048747107 0.8463932717209786 0.0 0.008741712706388858 -0.014536629373615634 0.0
220 1 14.333031023725848 1.7031341998135667 0.0 0.12555239651823108 0.05825221191130825 0.0
221 2 7.30647144235568 10.402120508239774 0.0 0.021036325177434156 -0.08776013638756389 0.0
222 2 3.0649619576256586 7.307964607857424 0.0 0.06393267676029683 0.07679263956060735 0.0
223 1 18.894832764294982 12.961350849371785 0.0 0.010307352036606661 0.04862137789633209 0.0
224 1 5.441890956129432 4.741760163248105 0.0 -0.11249791833513399 -0.06100534525741976 0.0
225 1 16.83404713780822 11.346286370529587 0.0 0.0876168233307561 0.04633042556329303 0.0
226 1 14.48449198156394 3.7334482108511127 0.0 -0.09156411711355619 0.13787723217082143 0.0
227 1 4.125689842990799 18.8873919735737 0.0 0.06401524174487024 -0.0665488953695445 0.0
228 1 16.641054737656134 15.479765666352831 0.0 -0.04677290284480113 0.09346858699008831 0.0
229 2 11.611599401227606 6.517546675101551 0.0 -0.10086436824396927 0.042718321121735695 0.0
230 1 6.987817787045637 8.065685038103954 0.0 0.04147313977896894 -0.07039425292792859 0.0
231 1 12.324651790288176 19.413273381265274 0.0 0.03130165700650187 0.04221706480226887 0.0
232 2 10.633100451853144 14.826549029207404 0.0 -0.029929414879577853 -0.00763333729668791 0.0
233 2 5.954523937709113 3.7802295142728175 0.0 -0.0323393330792354 -0.004788081259413647 0.0
234 1 9.236035236699529 13.860342727070458 0.0 -0.08877405373151538 0.02954371062477498 0.0
235 1 15.290503117194623 17.631966321565628 0.0 -0.07639506151715926 -0.10713632412640647 0.0
236 1 1.4535590178981408 3.9925262841378597 0.0 -0.015267755030323845 -0.05748692664924368 0.0
237 2 15.948496329131913 6.370259493257015 0.0 0.00012608628844782807 -0.047231303003589006 0.0
238 2 7.521010669222447 9.072414537795856 0.0 0.007237658412120469 0.05071054766797117 0.0
239 1 6.484399618071308 8.504852148133116 0.0 0.14607139140510594 0.00528589476914811 0.0
240 1 4.698805256452167 1.8121204637217039 0.0 -0.09760484508384212 -0.09906129147957783 0.0
241 1 15.553535019932584 11.549781953473795 0.0 0.019698866604623378 0.09632152212711576 0.0
242 2 11.649886638328438 7.82563395963322 0.0 -0.022605403241792884 0.02541795111919095 0.0
243 1 7.496261630007134 15.419910271482262 0.0 0.08206316020166245 -0.10558919543257413 0.0
244 2 13.856612442390798 7.668569077317338 0.0 0.02858954995368724 -0.08098553343827583 0.0
245 2 4.843534444488128 13.915969656120286 0.0 -0.02810014336830526 -0.002142055048989711 0.0
246 2 6.82478560065857 16.994403381641252 0.0 -0.06420386665720552 0.01800640855886716 0.0
247 1 13.42998119942567 12.173314455580538 0.0 0.06764491115437292 0.06367399661460874 0.0
248 2 4.469170070879421 5.255151897047118 0.0 0.016878075368702453 -0.01754589703995919 0.0
249 2 12.133462197667605 10.471557896218059 0.0 0.10253253811633262 0.007036344989200096 0.0
250 2 5.09969440114443 6.444767407435055 0.0 0.021521429757999106 0.026396726565436054 0.0
251 1 5.547235669609848 5.4019449542681075 0.0 0.040979619527976394 -0.09251555894528346 0.0
252 2 14.520070122118566 9.606317555838212 0.0 0.07613893791728622 -0.09050182476719637 0.0
253 1 13.985585026374201 3.2168710557757794 0.0 0.037144087009872435 0.042337019071896756 0.0
254 1 15.960342450995606 18.78995219118267 0.0 -0.04412665943265161 -0.042740931439644574 0.0
255 1 17.25691661710702 16.6879720144714 0.0 0.018142685421991028 -0.09714771197083255 0.0
256 2 2.4786507879749373 6.162708008969351 0.0 -0.02077732224314922 0.024463541829754017 0.0
257 1 19.17139642575335 12.359896938471625 0.0 0.16554358079403553 -0.05757329429320163 0.0
258 2 4.687525677664897 0.6973010908936822 0.0 -0.02349089386893136 0.03795867184266319 0.0
259 2 2.3951849856304555 11.682617676605219 0.0 -0.04660689055918946 0.02074148830157019 0.0
260 2 0.5478657961769808 14.399220490565519 0.0 0.06448564958980148 0.024116145880486557 0.0
261 2 3.6671588222755345 13.498377537691255 0.0 0.09582911655829268 0.1453280087349167 0.0
262 1 13.306123037175995 10.099044811049597 0.0 -0.04695533777976776 0.007624541326979001 0.0
263 2 19.286641191652187 1.5992111160438813 0.0 0.06387302210212573 0.05285758312784847 0.0
264 2 7.019862984897655 1.2487948699778872 0.0 0.023448394654099074 0.05733416898954078 0.0
265 1 10.851820129482952 17.228817010031886 0.0 0.08407366870981349 0.043006865738005766 0.0
266 2 0.7015912514436842 4.8164205990379685 0.0 -0.017486712820748703 0.03262993818334695 0.0
267 2 5.741068207142327 1.4124448227296074 0.0 0.005130796542325049 -0.009074240418345444 0.0
268 1 17.331872435590753 15.57039764038478 0.0 0.08912154577196263 0.11852273463578097 0.0
269 2 12.702046840711535 13.017276557537617 0.0 0.025974983709247543 -0.0747533339857585 0.0
270 2 1.7159157020704816 2.892995550268911 0.0 -0.07917149828959189 0.003863259546533453 0.0
271 2 16.86948655684238 12.51027656182726 0.0 -0.08284517465125597 -0.02864006714365802 0.0
272 1 8.59848739944827 9.396006200698887 0.0 0.05746326024950179 -0.09248836863683561 0.0
273 2 1.0598012901131864 18.551542800504574 0.0 -0.02623413886466786 0.004831687785593735 0.0
274 2 3.872572340145519 4.074848480290374 0.0 -0.12233683713518406 -0.09015843835280717 0.0
275 1 9.599386326246096 17.36896054646609 0.0 -0.010194549516903208 0.08481268819983702 0.0
276 1 9.36589449219459 5.986271853509229 0.0 -0.15281786533115208 -0.016274187625740334 0.0
277 1 13.821087994666364 2.1520376962095122 0.0 0.055138945435932715 0.0377053114730235 0.0
278 2 2.1222689129558967 17.719241570416102 0.0 0.06774705079703543 0.08115482651530506 0.0
279 1 11.70705039658859 16.30221045570705 0.0 0.10042179917874836 0.08245593830275598 0.0
280 2 1.4451514058759884 9.584136465066695 0.0 -0.04074738692470913 -0.12442414040454501 0.0
281 2 14.887224922330798 2.620898457508652 0.0 0.01867843405153653 -0.07824772942810504 0.0
282 1 17.30454634847674 17.357546792653004 0.0 0.08300489478763953 0.03140089344162264 0.0
283 2 18.3473350271966 2.454647008392636 0.0 0.017965583172606693 0.0067040802517680876 0.0
284 2 0.9089861942908958 17.173459163768456 0.0 -0.014211373597014762 0.09726816379837154 0.0
285 2 11.737826852631862 3.158637737968682 0.0 -0.046588584501662984 0.034817108375800064 0.0
286 2 18.07478145797925 3.755528275025663 0.0 0.006140804979598496 -0.11590086158502655 0.0
287 1 15.25837665034738 10.967132526930316 0.0 0.0024898955617684852 0.07624840371785672 0.0
288 1 10.517468752662456 6.3982160596361775 0.0 -0.015403287049958551 -0.02380778126427529 0.0
289 1 14.440627080151321 12.97498557385633 0.0 0.0055408947521951284 -0.07702578526871369 0.0
290 1 17.471588624874585 11.599305930986398 0.0 -0.005493233109890561 -0.007842069630599476 0.0
291 1 14.921966957402544 4.949651669265416 0.0 -0.02471084534797668 0.028423208892294296 0.0
292 2 7.134185814875653 18.206490100126793 0.0 0.0208467526081099 0.04864381318748862 0.0
293 1 12.603911461993969 0.7897420841371932 0.0 0.07331966198372582 0.04976640531176527 0.0
294 1 13.712881125184593 1.4762914147960045 0.0 -0.08663602497545692 -0.03794914911197259 0.0
295 1 16.438589667652657 5.404071794925967 0.0 0.03530558373054494 0.0071514370551912145 0.0
296 1 15.329001467212477 10.310071767932644 0.0 -0.03532007821315328 0.12498431349953881 0.0
297 1 18.692264865740174 15.089474832847406 0.0 -0.0481990106391575 -0.0031599372289244083 0.0
298 1 2.1069465244139143 18.84301659749076 0.0 0.0032140256933710447 0.005514451815354753 0.0
299 2 17.054544911258603 18.986912474185566 0.0 0.0686026424354602 -0.07226059056669952 0.0
300 2 12.075524574343556 4.5434735206641 0.0 0.012832880037026519 0.0021412643656483986 0.0
301 2 2.655419660768211 14.237637200129281 0.0 0.038904112899908826 0.04381143721107118 0.0
302 2 11.196723908666485 11.297785608470758 0.0 -0.03390302699047063 0.057020262743084804 0.0
303 2 9.860788594462523 4.88375291902469 0.0 -0.05227855552525096 0.0184220824387538 0.0
304 2 5.9782050493509535 18.65956870327582 0.0 -0.021393655286539644 0.031628382107562115 0.0
305 2 1.0136049763571324 6.133866471354482 0.0 -0.089472064196551 0.05093359921466467 0.0
306 2 6.559685438319388 4.864297296756029 0.0 -0.05912060303292873 0.031225972806399903 0.0
307 2 9.028664919617682 12.705166817512644 0.0 0.03847677306222253 0.025453892812886937 0.0
308 1 19.16492739688845 18.98413975364001 0.0 -0.1318090589271458 0.035782195173080025 0.0
309 2 1.8341668596680738 7.209261245402837 0.0 0.05092484123089403 -0.04076469598267129 0.0
310 1 17.64228145915922 7.296730371657346 0.0 0.03939490578462791 0.06907898080197956 0.0
311 2 9.676681265996226 0.8360386264814672 0.0 -0.022315432404914938 -0.03850749410397051 0.0
312 1 4.700352909805474 12.19397679774213 0.0 -0.08100984303783056 -0.02910906450329213 0.0
313 1 12.786513375669408 0.16455439591289436 0.0 -0.24780936403087858 -0.004357574216293722 0.0
314 2 0.24253807950089615 8.861741073200632 0.0 -0.04839262391495386 -0.02864170291473562 0.0
315 2 18.420038528914517 6.554600475544495 0.0 0.08482577222253365 -0.0055743654200808524 0.0
316 1 17.886212138481252 12.165287027572955 0.0 0.05764190264185715 -0.04460448340767943 0.0
317 2 13.35645083146555 16.310032004106596 0.0 0.014775451000083838 -0.059859765927797674 0.0
318 2 7.173585148792901 3.614948930542516 0.0 0.05829977135257359 0.06015201955955635 0.0
319 1 15.140642641878307 3.6470302948337023 0.0 0.01889942829628231 0.04185556835965524 0.0
320 2 3.4519830734991688 17.646584826050745 0.0 0.07944978531381143 -0.07870342505717434 0.0
321 1 15.010965881119837 4.27906623522741 0.0 0.052872320111453354 0.09709026592442353 0.0
322 1 12.8290177774947 9.60470600335401 0.0 -0.0012030964975247138 -0.002645666811070009 0.0
323 1 16.875765199787303 17.904847540466108 0.0 0.025251036427044106 -0.05151193874078142 0.0