ITEM: TIMESTEP
0
ITEM: NUMBER OF ATOMS
400
ITEM: BOX BOUNDS xy xz yz pp pp pp
0.0 19.7609 0.0
0.0 19.7609 0.0
0.0 10.0 0.0
ITEM: ATOMS id type x y z vx vy vz
1 1 2.136845942250591 15.544395659468101 0.0 -0.01380260820707295 -0.009131352518014483 0.0
2 2 17.677887056902144 14.396556697761733 0.0 -0.05820975339844946 -0.043203759507299835 0.0
3 1 19.12978317488862 19.104938716629178 0.0 -0.10746333226800084 -0.03314692817034225 0.0
4 1 15.172274054110218 12.02006104135744 0.0 0.13353083293138976 0.08998418653543344 0.0
5 1 7.696180117656223 3.5706768554273403 0.0 0.05698025755210731 -0.007425135451776302 0.0
6 2 6.520818586894658 6.861609341047395 0.0 -0.03103373649630413 0.01774763818169763 0.0
7 2 16.193562618690923 6.977826651168673 0.0 0.022959421158752644 -0.018029548144946613 0.0
8 1 15.819950388799766 14.681720410555307 0.0 0.005695839431730969 -0.008859427802526108 0.0
9 2 9.836642371255602 4.59491094930698 0.0 0.11307084894945423 0.053607194224685226 0.0
10 1 14.780122207850775 15.20143460886957 0.0 0.007668648910594522 -0.0007360307467462749 0.0
11 2 9.733109788427106 5.843652011418597 0.0 0.009862278423746054 -0.0983406323731886 0.0
12 1 11.037629039219516 8.657642167605506 0.0 -0.0127472719523564 0.02353637790148424 0.0
13 2 11.193832300790318 11.769086530127833 0.0 0.030180169723624188 0.012303859969349558 0.0
14 2 13.294904908179623 19.58830844069474 0.0 -0.0033496212712895153 -0.12981617912927357 0.0
15 2 12.612605399981797 16.12884472066929 0.0 0.08266572177379247 0.038276640446049004 0.0
16 1 2.1071308560965796 4.808388051752904 0.0 0.19637788803968056 -0.16570827038110666 0.0
17 1 4.952483765298486 6.430087091973445 0.0 0.006257116170854284 -0.05834027523035602 0.0
18 2 3.572716756064702 11.03246904184806 0.0 -0.04941086541641188 0.0141873878907184 0.0
19 1 14.423200432758527 16.139623157635775 0.0 0.05988899361172434 0.1159673695629198 0.0
20 1 3.557546359456912 4.929115785856326 0.0 0.12092494183285465 0.08289959058284883 0.0
21 1 8.22745547603392 4.872361055361704 0.0 0.01760166333643541 -0.011791633077167817 0.0
22 2 11.243385954498459 13.029576801419614 0.0 0.053466245793989606 -0.049748522870854274 0.0
23 1 9.06703602637115 3.8317339214788033 0.0 -0.008669230788516542 0.18495795339735688 0.0
24 1 19.176147347041752 16.13793640483752 0.0 -0.005642054599031984 0.12968555289582026 0.0
25 1 16.5154500484314 2.2363697600713146 0.0 0.0762939267432455 0.0840052422387137 0.0
26 1 3.4528445870108104 18.42544123914025 0.0 0.027086644368490505 -0.11966071139276915 0.0
27 1 1.301031879416848 13.134109873442888 0.0 -0.04971613310113796 0.07971305106816957 0.0
28 1 5.21170374020199 10.169075829741223 0.0 0.1514024004049762 0.03040780565635216 0.0
29 2 14.582086392944598 0.32385625336740237 0.0 -0.043732290342798665 0.05170431510952889 0.0
30 1 5.656216120796482 5.241458672759391 0.0 -0.055963838471950085 -0.1661158875304383 0.0
31 1 15.042211863467173 15.814582535428 0.0 -0.0723994233435212 -0.07062024964314952 0.0
32 2 4.0096527411120215 5.9413521019054505 0.0 -0.075868831565412 -0.04338395284900182 0.0
33 1 4.785243195399249 3.681024825071904 0.0 0.062126135711930014 0.007028850175059064 0.0
34 1 14.255959252712827 5.623989289880547 0.0 -0.015375360550670973 0.044344949584393084 0.0
35 1 8.039740473836545 7.376334096532355 0.0 0.01564528865115716 0.014801090442877394 0.0
36 2 8.978866319882876 17.637032114284633 0.0 0.06788919430630988 0.008460036252780079 0.0
37 1 8.39140995107827 5.566734264604538 0.0 0.10675804586488762 -0.038343668716337174 0.0
38 2 10.17069023376527 17.202375787195862 0.0 -0.012374057419187385 0.05515444578024464 0.0
39 2 15.286390741684338 5.135496118523605 0.0 0.10078776405224807 0.01752613662718152 0.0
40 1 3.237883343646269 7.4517087419192585 0.0 0.04881462317890763 0.04540552499453772 0.0
41 2 2.453093136003107 18.800825387907942 0.0 -0.018978491684530602 -0.022970632210730323 0.0
42 1 8.411280828092195 3.7322552862656497 0.0 0.019131607079333333 0.025835593650053543 0.0
43 1 8.701589032316923 4.3852502535646165 0.0 0.05211309573205814 0.02469992630931189 0.0
44 2 18.600846241416463 4.289254214270566 0.0 0.009415281380987248 -0.011663808957819703 0.0
45 1 8.195187185442926 1.90749995668903 0.0 0.015084157173882269 -0.04311546496510311 0.0
46 1 13.019365429718663 18.45464437469993 0.0 -0.026771801872342533 0.15400598872022372 0.0
47 2 5.731851742651106 16.58638226972272 0.0 -0.009958195034715685 0.03737412249733059 0.0
48 2 15.139895784595444 6.339743763746145 0.0 -0.10792695618302856 -0.03734775735637533 0.0
49 1 2.230108023035081 6.620236547184979 0.0 -0.028840518857758644 -0.01962380069693245 0.0
50 2 19.544751586819235 0.9488884245995068 0.0 -0.019816616670133343 0.06719389717118196 0.0
51 1 5.594031992581437 6.284217849845239 0.0 -0.020868734765179378 -0.1086942871002514 0.0
52 2 3.5552816846319897 9.811968557655616 0.0 0.0028723631495720333 0.04966651563388369 0.0
53 2 8.110662204995995 9.674781524857298 0.0 -0.013881102369729387 0.027094635021506934 0.0
54 1 4.820487875980113 14.79783486143413 0.0 0.12429104790126982 -0.043764922474694566 0.0
55 1 5.298024878731087 3.221972879804673 0.0 -0.029068514654638184 0.09246731584881106 0.0
56 1 11.673647981826496 8.87088106179609 0.0 0.025370586562328247 -0.010350480947388257 0.0
57 1 7.286320107130391 4.091158533077221 0.0 0.023442245923715778 0.13295431189855614 0.0
58 2 7.73451943728327 0.8443394484888131 0.0 -0.031316765494181 0.07773572855076692 0.0
59 2 12.068131671288263 4.857934536177615 0.0 -0.03788437486072569 0.008759605715378831 0.0
60 1 3.6970306839673888 0.5734735770171124 0.0 -0.14900801991575086 -0.0322775531023155 0.0
61 2 19.682836694440358 13.956954453774536 0.0 -0.041320351882883646 -0.04837034019120428 0.0
62 1 2.7970865711962385 4.57513652025617 0.0 0.0022295074290662365 0.07944512019704549 0.0
63 1 1.5799705790767566 15.178692525588954 0.0 -0.018441459868312124 -0.02737344568723591 0.0
64 2 1.6374113196237936 8.258721341302405 0.0 0.004057578826668729 0.06678846272909973 0.0
65 1 15.474849583462218 15.258160678284414 0.0 -0.05240425949620735 -0.004184699886757694 0.0
66 2 10.131861357638925 15.967475462265808 0.0 -0.10489641346808759 -0.015731616563080638 0.0
67 1 6.029382216713917 5.790655330606501 0.0 -0.05963953822716565 -0.04549662969134756 0.0
68 2 10.904948863799602 5.385445362420714 0.0 -0.040896749891314456 -0.05823030431263158 0.0
69 2 2.1977243272618923 12.531147501941916 0.0 0.04237939922393419 -0.018017031037223376 0.0
70 1 7.395387469875998 7.535646993257892 0.0 0.10497321029863335 -0.12638324125565142 0.0
71 1 5.1529912236283835 5.759142281555119 0.0 -0.06666329247403278 -0.05622216770460527 0.0
72 1 3.0210100699565667 0.5931567302261581 0.0 -0.03746954512450054 0.05470708726403036 0.0
73 1 1.0377593973829993 12.501889715547206 0.0 -0.07495333260876978 0.009296521380428323 0.0
74 1 14.896093468103706 12.679430295153521 0.0 -0.11124485883782734 0.04006466943741801 0.0
75 2 16.656766516731295 3.390247175748107 0.0 -0.02534598672791382 -0.08762035381057037 0.0
76 1 9.860414578523855 18.259884464414924 0.0 -0.0526821157772294 -0.03767446443445022 0.0
77 1 17.628875714923677 4.834738216796869 0.0 0.054822188214234686 -0.07496309957314566 0.0
78 2 10.017264097812657 3.32454323453584 0.0 -0.019535114697809327 0.03677978017060566 0.0
79 1 8.190401218360297 3.103828642842619 0.0 0.021547068548598437 -1.136698095782626e-5 0.0
80 2 4.674305096588747 17.28950304607221 0.0 0.012897896542275241 -0.00775384308576682 0.0
81 1 8.65386204599208 0.22234938189477688 0.0 -0.0727673161265058 -0.040859830016519084 0.0
82 2 6.610138938163814 1.4548888027239537 0.0 -0.005447982031459328 0.013931994908888148 0.0
83 1 0.5285336003747878 7.025245299806591 0.0 -0.11741293637597226 -0.005406170242124118 0.0
84 2 18.723808291776542 3.0372981773662953 0.0 -0.06855651974931652 0.0018133652414359061 0.0
85 1 4.463571551928168 6.925155188634224 0.0 -0.1182926977745694 0.052669650259849994 0.0
86 1 11.119912281921522 18.610826825511815 0.0 -0.1467890836652017 -0.02494990019714918 0.0
87 1 14.45867854737955 8.461050707141663 0.0 0.10385533847198697 -0.0586259810990291 0.0
88 2 15.681590300026844 10.074964103988856 0.0 -0.05379782608690716 0.0393464585272702 0.0
89 1 5.417322626730826 8.468885526073402 0.0 -0.08932362544348105 0.09145983806923563 0.0
90 2 0.7413194744306373 5.916326407960554 0.0 0.00522102922667075 -0.03374830856158331 0.0
91 2 17.248541834643508 5.876466562432001 0.0 0.08449913856921 -0.09343860789368139 0.0
92 1 0.640902684789704 13.143242113502478 0.0 0.01908003980964187 -0.023441216325639967 0.0
93 1 12.60847510310156 10.937525628078294 0.0 0.04603582089280926 -0.01645906534256302 0.0
94 1 2.8786984437227434 14.582475812687543 0.0 0.015030293123223893 0.053083113833542486 0.0
95 2 12.945939480143489 7.565743868786947 0.0 -0.0952421328501292 -0.006405036141174911 0.0
96 2 1.8891122533759965 17.702772422566525 0.0 0.014096017868434275 -0.03255545942276991 0.0
97 1 3.228191127420357 13.340630468201393 0.0 -0.13352672695951948 -0.12438228366641811 0.0
98 2 10.878087512965415 6.6909497411298915 0.0 -0.03691164133256082 -8.22761598730268e-5 0.0
99 1 1.5344778690918501 6.657523560138469 0.0 0.08546784459404193 0.09453402621483667 0.0
100 1 2.0717387087003147 3.4926822394179364 0.0 0.03841529410290165 -0.05329982880734442 0.0
101 1 11.724441823183078 15.433990252122006 0.0 -0.04986261863888544 0.08228091824254483 0.0
102 1 9.627208322686945 13.878507685398388 0.0 0.04804473528812183 0.0227654894887684 0.0
103 1 1.9310343948350044 11.467629874076772 0.0 0.0340028874113 -0.04858195365904214 0.0
104 2 15.113345065106842 7.588665184663915 0.0 -0.03658099571290005 0.045667829073348425 0.0
105 1 1.9011358467551027 7.214347764954332 0.0 -0.09547580237049677 0.09328895115796602 0.0
106 1 2.5837037320769065 3.932013640703816 0.0 0.04769818995074163 -0.015202020392482396 0.0
107 1 19.59370039310621 12.122719612365415 0.0 -0.14548494378799592 -0.027158532524921015 0.0
108 2 0.3763429548554033 15.251120168125341 0.0 -0.002612409569295216 -0.038983409716786085 0.0
109 1 18.162080814220086 18.148389126792974 0.0 -0.030812040884868976 -0.012964040083191247 0.0
110 2 2.9688805553503825 2.870181203883061 0.0 0.04281634720267642 0.044841420931977315 0.0
111 1 4.237857542898537 4.855386752468821 0.0 -0.04171513491857413 -0.002786817571588688 0.0
112 1 17.88380911905563 0.8504536949889699 0.0 0.13256642135713181 -0.11745135682240512 0.0
113 1 1.748714527408142 5.40572715697384 0.0 -0.05973466512934263 -0.02076233607445758 0.0
114 1 14.514673598992186 14.574990310106614 0.0 0.04846792508536675 0.15508593419158914 0.0
115 1 4.643272855113328 11.189855818530903 0.0 -0.08826083111061643 -0.016931603083544907 0.0
116 2 11.331955731072185 16.533076623803577 0.0 0.02716574429609675 -0.0650294398717603 0.0
117 2 19.396288435852068 7.751954782126688 0.0 -0.01126626801862929 0.015038451916484199 0.0
118 1 8.975105888102917 19.32714787005415 0.0 -0.06923309701989305 0.07406544158098141 0.0
119 1 19.69404042637425 6.697013599145125 0.0 0.04090131900411922 -0.013700220163986584 0.0
120 2 8.683959284725999 10.896607300140534 0.0 -0.012829610582359026 -0.043360689445510595 0.0
121 2 13.389182328734922 8.803674950105739 0.0 0.01601115387172067 0.007506394154117005 0.0
122 1 10.0057697369071 8.230849005845045 0.0 -0.11620957966708748 0.05023924443786114 0.0
123 2 11.36246284202957 14.275638847952916 0.0 0.028705341664111837 0.02152050328895295 0.0
124 2 6.7676341683517585 12.955625760430149 0.0 -0.017716555979677813 0.06538111848510691 0.0
125 2 4.275553535664219 2.731971713802325 0.0 0.11240820095297248 0.036735572279678524 0.0
126 2 8.776898353977016 6.58992834612113 0.0 0.04966016214985997 -0.019587886088129888 0.0
127 2 14.36996835462451 3.13818697206164 0.0 0.01549755434079315 0.033462886032802265 0.0
128 2 0.9717307081242165 3.4432241992711283 0.0 0.0007841941184602449 -0.03113057008066908 0.0
129 2 0.6884423779621461 17.35135798110434 0.0 -0.01027653388762575 -0.008382874897326467 0.0
130 1 1.3106868768904758 11.86412946743916 0.0 0.022523402600822903 -0.023649810835268244 0.0
131 1 11.96027108995339 10.992964753139383 0.0 -0.018374471102383567 -0.041723054730996564 0.0
132 1 10.390222385290114 8.77386331873039 0.0 -0.06123709204207622 0.059754119417651214 0.0
133 2 12.124970209881576 17.780373572117128 0.0 0.06278379342752224 0.06651735184287752 0.0
134 2 16.56259866469772 19.100010874011478 0.0 0.03345909072338085 -0.033549375125045314 0.0
135 2 8.958474222550068 12.993195260594614 0.0 0.042214733739964976 0.11058253317778804 0.0
136 1 17.555507996807588 18.447044392353988 0.0 0.07066213827029848 0.018730538183939847 0.0
137 2 11.033936789177522 4.107632357353604 0.0 0.021983436225591162 0.08415818344244971 0.0
138 1 16.155636116124946 5.855715391927196 0.0 -0.09482473009980923 0.07077058417790026 0.0
139 1 14.559143948575956 13.28686061160619 0.0 -0.10363316236590496 0.1559847828618417 0.0
140 2 16.05230671573022 12.65494130889911 0.0 0.0066155181207577084 0.08381749274639928 0.0
141 2 13.157651354244033 3.758102718064521 0.0 -0.025750867593018315 0.07155141832052436 0.0
142 2 11.671120620962425 7.7436558232306565 0.0 -0.002490357880715322 0.0023792324186327368 0.0
143 1 11.977069897412669 6.690143103347433 0.0 -0.0450423579114352 0.08411693834378434 0.0
144 1 19.690390785869145 4.364055329467613 0.0 0.0716406248273485 0.06987110216534981 0.0
145 1 5.808986480202172 9.022341364044445 0.0 0.0008658847564800627 -0.05593776920940615 0.0
146 2 9.032742498243065 7.798570254243244 0.0 -0.02973534875168792 0.004937213648437724 0.0
147 2 14.547823025174974 17.899667129528165 0.0 0.25261622710030784 -0.02226724627091601 0.0
148 2 6.791101840724682 17.33166231091319 0.0 -0.04801530189732812 0.04239911991816949 0.0
149 2 0.4724515184317178 8.733170729187782 0.0 -0.07965030200243414 0.03493913463102124 0.0
150 2 18.55348288420963 13.50488806412143 0.0 -0.028055511895910632 0.010801201825193979 0.0
151 2 6.745091936202489 18.642130989766887 0.0 -0.010406595728395543 0.01902384329425303 0.0
152 1 10.243837502049384 14.249140440872969 0.0 -0.0033507558101530895 -0.07879603640903654 0.0
153 2 5.469695596678931 0.7356515628949093 0.0 0.03640665389525044 -0.0383218584155257 0.0
154 2 18.881168675457126 14.98030046805495 0.0 -0.07245852586363555 0.07273280215659947 0.0
155 1 2.604086779806455 11.515666708219506 0.0 -0.09074320624643031 -0.03318866171163682 0.0
156 1 19.483873284735164 16.84441289166328 0.0 -0.11439152625595088 -0.04710758663104479 0.0
157 2 13.575235589485848 11.476756729842776 0.0 0.07336805783761435 0.07123550640124444 0.0
158 2 15.99969187938105 11.295603443853976 0.0 0.02537695914818384 0.011559043676912425 0.0
159 1 14.198701086813323 18.96904757987113 0.0 -0.0445930452822134 -0.08907398108602015 0.0
160 1 14.790601331419625 13.961257229692196 0.0 0.021254849938755014 -0.1384922159002602 0.0
161 2 2.808953284104844 5.688805925265778 0.0 -0.011004768838679973 0.06474548173389806 0.0
162 1 7.099748716462394 9.135999677557175 0.0 -0.03762675896649602 -0.012690893009599085 0.0
163 2 6.23860080398066 10.585455532926508 0.0 0.03023239946903145 0.036907520807063034 0.0
164 1 19.307819723658657 10.896216380527123 0.0 0.07592593124236452 0.10333711337630776 0.0
165 2 2.356414139795487 10.444931815951144 0.0 0.05844049182285106 -0.029952273754712624 0.0
166 1 7.50262146183813 4.715069318087144 0.0 -0.06779407883953893 0.165774123602788 0.0
167 2 16.530542189722414 13.872403910882394 0.0 -0.023669773712615447 0.023883994753316463 0.0
168 1 14.032080265750523 7.920495136511482 0.0 0.14080163540569465 -0.026030954128730358 0.0
169 1 18.512196300540523 0.5920251177636978 0.0 -0.029741864008377347 -0.005186074004987879 0.0
170 1 10.245190461777858 11.242527256817386 0.0 0.14497315817658704 -0.06445641211793943 0.0
171 1 11.057033898571357 15.346649929640916 0.0 -0.10232698363545277 0.2389778540373007 0.0
172 1 1.8856107800062167 19.75514217812828 0.0 0.14334294642131926 -0.02937933800156942 0.0
173 2 1.2156663214053833 16.212021238500615 0.0 0.030101045438643826 0.03647641223987883 0.0
174 1 6.964666483988593 15.012361342497737 0.0 0.19892755330842643 -0.03526849374437986 0.0
175 2 4.5177983542144275 18.59971645658211 0.0 0.03530200169874865 0.06081599218460354 0.0
176 2 18.51525025637374 5.515647701678662 0.0 -0.02413683919069217 -0.025379636378301502 0.0
177 1 1.1940839811862578 7.225094476229594 0.0 0.11956288298716579 0.016319270632473105 0.0
178 1 3.586297022848057 14.57122868167108 0.0 0.01927164394365504 0.018674812555641684 0.0
179 2 17.806817702540126 19.511169469359942 0.0 0.06673144710989248 -0.042158443413182894 0.0
180 2 15.91555776773829 17.954852178686924 0.0 0.021335357471717064 0.009037689348159692 0.0
181 1 6.05251838765819 4.5755110202366245 0.0 -0.0773736150749032 0.07143898164262791 0.0
182 2 1.389900743586296 9.571262525222206 0.0 -0.07443622195599876 0.059486369654670905 0.0
183 1 18.924698234268586 0.032763827540391456 0.0 0.05827128031180791 -0.0344516125216604 0.0
184 1 13.768707584307501 10.406712495940132 0.0 0.08525255428781364 0.19643663923612947 0.0
185 1 13.671763813959066 18.529239980871143 0.0 0.06259913300865169 -0.014358053699761049 0.0
186 1 19.64432117849545 3.672927179697515 0.0 -0.03473456965672428 0.09087062013105253 0.0
187 1 0.5946732546250226 11.883450354401223 0.0 0.014423478844150368 0.06097326930733062 0.0
188 1 1.4456362104584983 19.19384837159587 0.0 0.020782707705841574 -0.07914692587432609 0.0
189 2 17.13358848965874 10.443101267657052 0.0 -0.05563052247617978 -0.0388445042294868 0.0
190 1 12.33461664479091 2.991855027567884 0.0 -0.0008986407627065341 0.07420898689608857 0.0
191 2 11.224818498433706 0.14253915105342932 0.0 0.02846032376709649 0.05431769233220639 0.0
192 2 15.276169430380843 19.004465960582984 0.0 -0.06002838339825099 0.038340143370633746 0.0
193 1 8.670830362480112 18.715322998922957 0.0 -0.017185696592512373 0.0029337304895128437 0.0
194 1 6.688208837733525 5.77393158384358 0.0 0.01863945298892528 0.07799376358239767 0.0
195 2 12.925373047653675 6.190714565692626 0.0 -0.02329625768473177 0.05827313941493251 0.0
196 1 9.019550703091836 0.8066824145154783 0.0 -0.04131734477035716 -0.14882963971524635 0.0
197 1 7.882211473025258 8.032099779155827 0.0 -0.1544563938823353 -0.17157438081986592 0.0
198 2 13.4677727872957 1.1252328623434957 0.0 0.07201007504109579 -0.04860367120153796 0.0
199 2 3.425435507953665 12.285801290897998 0.0 -0.010587615679344822 -0.06472920706593202 0.0
200 1 1.9078745307430167 4.142930923403082 0.0 0.04116020416529396 -0.1372255323891388 0.0
201 2 17.40375606580643 7.114996823640569 0.0 -0.005625136711180674 -0.05941008289680768 0.0
202 2 19.318314639834284 17.98166517967589 0.0 -0.05824965373908274 0.02766621066419228 0.0
203 2 4.660424939664429 9.271073892259041 0.0 0.0677419856936812 -0.05692853954590516 0.0
204 1 18.382567214239923 15.947117225896903 0.0 -0.005193861548814299 -0.09676512254305689 0.0
205 2 14.737434271808866 10.967464783513082 0.0 0.03404050343832788 -0.01185616339097067 0.0
206 1 10.494723227726515 14.932668291663047 0.0 0.04759621720183752 -0.04177787671564573 0.0
207 1 13.722333495303674 16.373382510569538 0.0 0.02490230037185423 0.08747763084645334 0.0
208 2 3.5982932328541706 16.75255598275023 0.0 -0.060129006889360626 0.01921240734894178 0.0
209 1 6.791135261524913 4.611339291379782 0.0 -0.0640512282461548 -0.15487952643287856 0.0
210 1 5.693583649225043 9.672079421722367 0.0 -0.05337980049468769 -0.17724056670404026 0.0
211 1 3.022456082715889 17.74615167595165 0.0 0.040497585105510193 0.0068817017361369375 0.0
212 1 15.744008291672282 15.863906162066323 0.0 0.08253503276194102 0.08262260219189389 0.0
213 2 3.703125242167881 3.870103968549111 0.0 -0.024247228420551922 0.04221208990077656 0.0
214 1 10.165109770301896 7.573641305481086 0.0 0.059399916646158846 -0.09837708718479724 0.0
215 1 2.2328018117595065 14.874169366944152 0.0 0.04769155514383878 -0.053166255926408 0.0
216 1 5.175611921786199 10.83008881229668 0.0 0.031883236776862986 -0.12773460217298854 0.0
217 1 12.319519071258206 8.63312531452603 0.0 0.026903666292899014 0.0026371433637344165 0.0
218 1 17.56030252929733 17.731868325288872 0.0 -0.04999632405896808 -0.04274939459091564 0.0
219 1 4.877290724667677 5.130305605964135 0.0 -0.06013576025456246 0.07616339644850252 0.0
220 1 3.2265490383985824 19.714807544166735 0.0 0.12420167987021316 0.07208009014204056 0.0
221 2 8.044222861728663 15.371136163459175 0.0 -0.03319175207137491 -0.041689004910172106 0.0
222 2 5.450964751955738 7.391575906476911 0.0 -0.0010281413401489149 -0.03409304559066422 0.0
223 1 0.5419712633529468 18.431904682107564 0.0 0.07786165837811236 -0.06735686838523045 0.0
224 1 2.5587313630857023 0.12901791132225104 0.0 -0.07620262922467498 0.038170476843307335 0.0
225 1 18.019042029218735 11.171230622090635 0.0 0.10923882720842332 -0.08382468042744007 0.0
226 1 9.106288152616994 11.90244565189899 0.0 0.06163192239755294 0.011319420844449023 0.0
227 1 8.293923728875669 8.594742205591503 0.0 -0.1148902320204822 -0.07367176772946006 0.0
228 1 9.617697099330497 11.453201050127364 0.0 -0.10692135447115651 0.03587553163953669 0.0
229 2 1.1121446482924247 14.21488584879053 0.0 -0.041254000066383356 -0.06232985812848908 0.0
230 1 6.408718077378195 9.394628820515527 0.0 -0.04249311036458749 0.023977232391485425 0.0
231 1 18.696874110330466 11.204784503920603 0.0 0.07235304211203078 0.028967678284195938 0.0
232 2 18.42212189754708 17.059216175140076 0.0 -0.06461206761038468 0.04125509027737074 0.0
233 2 11.030631272341722 10.417818346632744 0.0 -0.038673274772368905 -0.0014464690892334402 0.0
234 1 13.356201633952656 9.875315622776595 0.0 -0.06514558849316653 -0.13372218437892366 0.0
235 1 19.26236612774829 11.56399635434481 0.0 0.03578879325695851 -0.08221071107767698 0.0
236 1 4.664656331857442 19.683401467987444 0.0 0.03841264271660679 -0.06552669295861291 0.0
237 2 16.733349632740605 8.254294859728276 0.0 0.0017931127963230712 0.029396062797781213 0.0
238 2 13.296749708738284 2.4491068303299124 0.0 -0.009021153179955787 0.018507640590151565 0.0
239 1 19.465722320712008 12.826998117330008 0.0 -0.08887741587700411 0.09679782863236097 0.0
240 1 3.9655075340364028 19.673075025710936 0.0 -0.0932821070752659 -0.1363403926697106 0.0
241 1 10.474117581950836 9.434208615142495 0.0 0.0565106173571694 0.009564337358211291 0.0
242 2 13.317751765266689 17.406463426653495 0.0 0.17122279014915964 0.1928840724699002 0.0
243 1 9.219841978172795 16.579172898593917 0.0 0.0855576849818093 0.141871622747277 0.0
244 2 4.6128049019577695 15.927584565946116 0.0 -0.020281461484507372 -0.1188296392361202 0.0
245 2 16.80997454696636 0.5574167818079935 0.0 0.03003762098272453 -0.032808474194183916 0.0
246 2 2.5553567134771327 9.065376673957953 0.0 0.04021644884614224 -0.0011819091716864514 0.0
247 1 9.315063062708633 18.680475136542228 0.0 -0.016219136872429346 -0.15230520451646326 0.0
248 2 6.364429922023278 3.5176370902064718 0.0 -0.051272044232561674 -0.04348617450881706 0.0
249 2 16.522446478134903 4.783227100563092 0.0 0.021755668844618003 -0.06484001954047358 0.0
250 2 9.753007159642628 10.269854650025763 0.0 0.08416267233246011 0.019708329252089134 0.0
251 1 9.815565806729836 6.977740495307334 0.0 0.009436333851283413 0.039878901736728464 0.0
252 2 6.343814868249751 14.115884716835199 0.0 -0.009919427878800598 0.055717403933166564 0.0
253 1 9.315569373575382 0.18717381081608817 0.0 0.039091261933990436 -0.10280582541581096 0.0
254 1 7.398798805460046 14.486870364712352 0.0 0.0641998432423219 -0.009095414538044239 0.0
255 1 1.2274362997750468 18.55152037447318 0.0 -0.07878155300890803 0.0021054224167998945 0.0
256 2 12.478180005407761 13.39020820285047 0.0 -0.04134309935124953 -0.00236816854858414 0.0
257 1 8.869033690301334 5.094845573266151 0.0 -0.04460890676630243 0.007841485469505046 0.0
258 2 0.8445013870663255 0.34438544337904425 0.0 0.0034072149317626653 0.059217087415612005 0.0
259 2 9.398479343244894 14.969797153125363 0.0 0.12924086610657323 0.019535622721162996 0.0
260 2 18.1753200931332 8.05998501780263 0.0 -0.11695341195577794 0.026736187291575713 0.0
261 2 17.136738890983892 11.794497442783767 0.0 0.042431108230038636 0.03249071343465026 0.0
262 1 15.45822389757187 14.031470991658185 0.0 -0.03351932016196618 -0.05153307704840877 0.0
263 2 15.501735118554382 3.8710906804829746 0.0 -0.07189830062469198 0.022314861695306876 0.0
264 2 9.310541564509277 9.08177228880865 0.0 -0.015312528363802397 -0.05801544943417585 0.0
265 1 13.09500145062452 10.493688060283963 0.0 0.10193483933500536 0.11778210372820457 0.0
266 2 15.5429473595251 8.819219946929408 0.0 -0.1161265731622042 -0.09041994075634709 0.0
267 2 2.40809143333723 16.591591192563595 0.0 -0.040059075694239894 -0.03348201395175915 0.0
268 1 17.754303212949807 3.5751738567221136 0.0 0.054894673497342616 0.0786922641635189 0.0
269 2 4.302829517104256 13.725963160133501 0.0 0.0998050032119873 0.006778749914777308 0.0
270 2 6.651251754695865 0.18462973720878104 0.0 0.002908717495856101 0.03707195491382997 0.0
271 2 6.73561192705444 11.733343121531165 0.0 0.005819096278593429 -0.03079126556077732 0.0
272 1 19.4314292090286 6.072549282625943 0.0 0.051390675982751204 -0.03580799594600682 0.0
273 2 11.36000243600719 1.5279939060331889 0.0 -0.05384566338032976 -0.027843928441380904 0.0
274 2 5.830019265348564 15.276915021576619 0.0 -0.0009862332267618174 -0.04663666013337438 0.0
275 1 0.767833718913278 19.041061619889653 0.0 -0.06881189189092024 0.03879232331764553 0.0
276 1 5.261440222099253 14.29291137776769 0.0 -0.022043037342914195 0.07742507428087643 0.0
277 1 7.850460608039299 13.230653518366013 0.0 -0.004226819653867034 -0.007144204643665347 0.0
278 2 14.001060966095439 6.817141504235231 0.0 -0.007916530721521304 -0.05578335127142935 0.0
279 1 5.3769179979607005 2.5274430843708164 0.0 -0.07485338338188029 -0.030531555673914582 0.0
280 2 12.553793587372807 14.71519434512244 0.0 -0.04316694056214783 0.01598345223152961 0.0
281 2 3.667891955997444 8.450990468437993 0.0 -0.0145300874603387 -0.007515865328803311 0.0
282 1 0.3559484615660283 12.542333558124538 0.0 0.1098154946755013 0.06853753978329348 0.0
283 2 18.99725165454178 9.002283293026496 0.0 -0.011937667056797427 0.028878841585640806 0.0
284 2 12.440701769200041 12.046086567376792 0.0 -0.029387578748567716 -0.04906237904472085 0.0
285 2 7.599139629729695 6.372382605561853 0.0 0.0034834030587511645 -0.010699341438993289 0.0
286 2 2.205828610252517 13.752973359768431 0.0 0.012041847477440007 0.044789349720042684 0.0
287 1 0.7071066826290089 7.675274675072557 0.0 0.026720990809990956 0.10359750890769952 0.0
288 1 14.522572620900641 12.083465302937975 0.0 0.03608699157490026 -0.1442543084030797 0.0
289 1 12.044656371750179 3.6483401165838094 0.0 -0.017392694183476973 -0.02636450382048887 0.0
290 1 10.530370574483369 18.270410593565927 0.0 -0.05772139969317821 0.04601197685198622 0.0
291 1 7.970384692061862 4.227743804861586 0.0 -0.014205672488262105 -0.06261364371270803 0.0
292 2 10.18826613576124 0.831627639867199 0.0 -0.011770681752119105 -0.009470151352139843 0.0
293 1 7.7480039379765335 5.320777771762272 0.0 0.009862825888697949 0.08545890039975712 0.0
294 1 8.968487199180633 15.969745094268973 0.0 0.14057857064443624 0.09916203236578287 0.0
295 1 0.11404530279350218 16.312221155143778 0.0 -0.06604691570206687 0.025238105238145268 0.0
296 1 5.350641415042389 4.638985664879734 0.0 0.11895049196358454 -0.10843377830993796 0.0
297 1 17.460835111708107 4.175976152799306 0.0 -0.05572231617463247 0.012452703911539253 0.0
298 1 2.6013294708764114 7.201974038753477 0.0 0.08190892535484723 0.03163357436937149 0.0
299 2 17.404259122001168 13.0244942563499 0.0 -0.0024355114455381034 -0.04420704617029147 0.0
300 2 15.79143944148949 1.3479479590995307 0.0 0.025844233406050042 -0.013974389960290847 0.0
301 2 5.462565030151897 13.16944528495291 0.0 -0.002642353828068653 0.06610931537523013 0.0
302 2 5.62937737523485 19.215164376627186 0.0 0.002176228375647499 -0.04177577108880358 0.0
303 2 3.2389354372023247 15.592033080776122 0.0 0.017952613338449868 -0.058703273142915235 0.0
304 2 17.581507212855072 2.4974587611139825 0.0 0.030207089199071366 0.008639773336885852 0.0
305 2 18.443804015165057 12.269100027680604 0.0 -0.05942968171270668 -0.0070036457603555044 0.0
306 2 4.553971412978516 1.5527877103850198 0.0 0.0005169099526913648 0.02566296732695054 0.0
307 2 13.301709480629897 5.036830406291067 0.0 -0.023356232995264428 0.013333414923794326 0.0
308 1 16.26119365913253 16.310296449174317 0.0 0.07419300541459974 -0.04190698384084654 0.0
309 2 12.197738473762806 9.835680357676312 0.0 -0.02095067361616539 0.04602619318408003 0.0
310 1 15.168908874792452 14.630415973360977 0.0 0.05513964551166703 -0.041140283772743015 0.0
311 2 5.495085428791771 11.901248692881776 0.0 0.0072325824526545835 0.019007905120116065 0.0
312 1 12.48583879255674 1.6935491980849648 0.0 -0.11997279602932648 -0.02241854884012521 0.0
313 1 4.338187833702907 7.592531294267182 0.0 -0.031109679904542224 -0.032330005055220296 0.0
314 2 16.71845650719606 15.304019852867263 0.0 -0.09789865745085596 -0.024010161582302028 0.0
315 2 0.9521701501456195 4.688958215236504 0.0 0.062063359071955405 -0.05330969698289289 0.0
316 1 16.54828159343925 9.373890405395416 0.0 -0.0894286999415275 -0.08063307664549887 0.0
317 2 0.07826904931732268 2.524650215788972 0.0 0.0598510908145159 -0.03312969414827508 0.0
318 2 17.35718479415012 16.426572844602468 0.0 -0.002679501148702351 -0.03639509764541481 0.0
319 1 6.984649159221186 9.78665587138906 0.0 -0.0987449844508187 -0.045612966573334794 0.0
320 2 7.7822844393583015 19.34169692550371 0.0 -0.010763635256402736 0.024889016460740487 0.0
321 1 4.351610986923556 0.4953452995423753 0.0 -0.03893220756878144 0.1526148823370392 0.0
322 1 5.37447659650765 3.9793700535189904 0.0 0.07611260293363685 0.06253678276115858 0.0
323 1 11.826484770981372 5.993876597855418 0.0 -0.08013716910510835 -0.012608069332565681 0.0