ITEM: TIMESTEP
0
ITEM: NUMBER OF ATOMS
400
ITEM: BOX BOUNDS xy xz yz pp pp pp
0.0 19.7609 0.0
0.0 19.7609 0.0
0.0 10.0 0.0
ITEM: ATOMS id type x y z vx vy vz
1 1 3.9033604519975307 1.1292475308827052 0.0 0.0670536641362758 0.07944842935434812 0.0
2 2 11.736066950009407 4.804028878770625 0.0 -0.04495747521511556 0.016751961726331442 0.0
3 1 3.580557146516496 9.202908556747438 0.0 -0.0289627080217198 -0.027331437161760546 0.0
4 1 0.4255601916653647 14.02806095501687 0.0 -0.12912814323952604 -0.03683700379254999 0.0
5 1 19.400562056244016 18.079538752076715 0.0 -0.032507582054844886 -0.053114432428670415 0.0
6 2 18.927957946761147 3.0453689833901327 0.0 -0.04719854102089088 -0.016656159650149206 0.0
7 2 13.89488574117184 16.632997452698994 0.0 -0.028878185679587914 -0.07699095833518066 0.0
8 1 2.88422584226939 13.353202976196492 0.0 -0.006533624803577084 0.05987279956883271 0.0
9 2 16.448495028655717 4.144439928104784 0.0 -0.00826579470227407 -0.04332635637368224 0.0
10 1 18.723994120872277 9.39572121203912 0.0 0.05941890633883624 0.0034630700243674863 0.0
11 2 0.18048902453906035 16.435678520613568 0.0 0.004499370883347087 -0.0699947855119103 0.0
12 1 19.531249106688296 10.423352167665403 0.0 0.09126186936162553 0.05487883506360837 0.0
13 2 9.060684884926378 12.937315271322108 0.0 -0.004899771430554931 -0.017659661272176528 0.0
14 2 16.487466643242076 5.553512366252037 0.0 -0.011540060397020381 -0.05599289280819542 0.0
15 2 3.739300677935144 10.869270993655626 0.0 -0.015881284882075006 -0.03189814807368243 0.0
16 1 16.689178489006014 15.209732157652848 0.0 -0.02823497762520332 -0.02542471695989702 0.0
17 1 2.8629338371631947 0.18382447603809707 0.0 -0.09887958028225641 0.025350843655229435 0.0
18 2 12.653208354506784 14.466650907255728 0.0 -0.02478751862522395 0.003939833661397229 0.0
19 1 7.595036741554118 18.72411516969151 0.0 0.04920924736034993 -0.04242047973387967 0.0
20 1 4.092572828849684 13.508183590021591 0.0 0.022829372523598367 -0.037439639205804065 0.0
21 1 12.939025789445939 2.8144511606629394 0.0 0.006506976047091595 -0.014795797357191633 0.0
22 2 12.997603100875374 5.037744518056894 0.0 -0.06568619134687491 -0.04964276215890656 0.0
23 1 19.509591694460983 13.813494752878423 0.0 0.04101074567313592 0.17270024103049422 0.0
24 1 10.738255478940262 8.372420793283233 0.0 0.06509960987022566 0.026822437122364765 0.0
25 1 6.526773774772519 3.2091919593746847 0.0 -0.03908783457541321 0.002395820849495889 0.0
26 1 8.208549227452794 19.028576371115513 0.0 -0.12001655643475627 0.029392061710260396 0.0
27 1 19.538341652634703 6.940144664222508 0.0 0.06320656993038776 -0.007037226332901934 0.0
28 1 0.6448173117701029 18.908536173093143 0.0 -0.06063975742142501 -0.08834300691352694 0.0
29 2 7.369800239584874 0.0017962927163368378 0.0 0.030684403965026592 0.03225141071700237 0.0
30 1 1.0840375490418632 13.506567816037208 0.0 -0.03993367598548742 0.09994248994904927 0.0
31 1 12.823075491788964 11.529687065791268 0.0 -0.06160212427234415 -0.07886446502246235 0.0
32 2 9.59551353787717 5.001104443455735 0.0 -0.04523336670468784 0.03404562142871457 0.0
33 1 10.668202497652604 7.725790224529883 0.0 -0.1213616921248107 0.11740065412126688 0.0
34 1 4.559038288234361 10.125110600587153 0.0 -0.07403752502246637 0.03266149477900636 0.0
35 1 9.167258437340754 14.922374591374352 0.0 0.1804817363895926 0.03853028793887274 0.0
36 2 5.159694552277562 2.2643763884043744 0.0 -0.11486541007674997 -0.02145723615985811 0.0
37 1 3.1633552937664375 15.4615352919671 0.0 -0.1224354582515301 -0.09676960450607161 0.0
38 2 1.382973799582926 16.62347299300423 0.0 0.07115288853334752 0.013840559674820783 0.0
39 2 17.73510842425741 4.451878874628875 0.0 -0.16148032607342214 0.03805676674954065 0.0
40 1 1.686229313731087 13.874761906978934 0.0 0.11438093702722783 -0.06918495729133692 0.0
41 2 8.59244753611279 8.728985881155987 0.0 -0.04074789240862685 0.03542012582089084 0.0
42 1 7.484334506009995 8.847416440189539 0.0 0.026259716282582637 0.01634617433042404 0.0
43 1 19.400431903938433 17.409192018244106 0.0 0.03802307377233131 0.07054981272849516 0.0
44 2 3.108560024332271 1.8839152824354488 0.0 0.029350552252289146 0.046108459505119874 0.0
45 1 10.05894670965655 6.696153689961014 0.0 -0.017991758635290914 0.057331088876875366 0.0
46 1 15.925318393986569 6.496007398046973 0.0 0.14025277962537946 0.04500216949090652 0.0
47 2 3.651619475651859 4.099901247296421 0.0 0.10888274565796287 0.08825306214720129 0.0
48 2 12.704910090861299 7.10692069519124 0.0 -0.03464988754501784 -0.029424891676705995 0.0
49 1 2.8522238742166737 14.849008551519209 0.0 -0.07344786519990383 0.03434967941189839 0.0
50 2 13.759003173714232 1.4126483846062614 0.0 0.02885954500677297 -0.020309162150026133 0.0
51 1 2.3618336996864593 13.782127428335547 0.0 0.047934233644402344 0.08229511137161584 0.0
52 2 4.610479904366548 6.616874332223004 0.0 0.01684087246227711 0.09670069783249023 0.0
53 2 12.528080067155253 19.438242946819578 0.0 0.04250814481421544 0.12894926241246368 0.0
54 1 15.43323861268654 6.019384166979187 0.0 -0.0739092250813789 0.1595085406635714 0.0
55 1 10.625251938219506 17.984156658181618 0.0 -0.05173508321056299 -0.12990755666792236 0.0
56 1 6.919248574023044 9.981268848138612 0.0 0.033804876701734994 0.07234292791094146 0.0
57 1 19.011185336914995 14.313247355026128 0.0 0.05428920687041599 -0.028537802340267975 0.0
58 2 16.036383025410025 14.200692871957838 0.0 0.0389279630892898 -0.08871035130123794 0.0
59 2 7.2741834181182865 4.0107037191272825 0.0 0.0519757360057823 -0.052018384638822 0.0
60 1 6.373350624346806 9.61185094025463 0.0 -0.0884488519486326 -0.1269109205723646 0.0
61 2 8.527424981134143 14.055904200336284 0.0 -0.0047348533663290745 -0.009367652010467251 0.0
62 1 6.365032855691534 0.4254702389585154 0.0 -0.027210913392922854 -0.0015844217079129944 0.0
63 1 3.7761715639218227 7.285100964553623 0.0 -0.01194979042373437 -0.03507236316215021 0.0
64 2 0.6229242167239166 2.524930597101082 0.0 -0.06079052775624033 -0.02370758534352051 0.0
65 1 18.38873690990219 14.589201881933107 0.0 0.07288156261527809 -0.11062544807069101 0.0
66 2 2.685969517397553 11.643383389480343 0.0 -0.061490954033129236 -0.06960518772594183 0.0
67 1 11.694994286899496 0.4332233931257427 0.0 -0.011864417292783157 0.013060502880710465 0.0
68 2 7.756645588468593 6.5473734487014115 0.0 -0.09159456527211532 -0.02573557540406577 0.0
69 2 0.3294038710167425 3.7468304447076304 0.0 -0.045107161001582706 0.06378188544048555 0.0
70 1 18.650415951326025 7.239144895034659 0.0 0.007505494379393999 0.036033061927269266 0.0
71 1 6.853882184064845 7.134892543714667 0.0 0.06908415315382097 0.03425098340653505 0.0
72 1 9.477163271813469 18.58444081049589 0.0 -0.12090501258339721 -0.027179632336606814 0.0
73 1 9.668890471316756 8.62950508753627 0.0 -0.046435658365533594 0.025825844572079835 0.0
74 1 2.91916276524359 14.17575734582833 0.0 0.01535459388651055 -0.14842139054850145 0.0
75 2 9.27560656915101 15.999144747398168 0.0 0.019460157941782907 -0.06165968125201398 0.0
76 1 12.259886242182704 0.757111791051407 0.0 0.002040369195993646 0.1631796441606088 0.0
77 1 16.588554660998792 17.37208051433766 0.0 0.06186261864538469 -0.0490793048185691 0.0
78 2 5.755448778456802 13.10306195673718 0.0 0.004000271145647643 -0.04589349208188604 0.0
79 1 9.769053368842446 6.092949407674069 0.0 -0.0964046083431984 0.10398049408186964 0.0
80 2 17.256006797951137 1.1501189372563367 0.0 0.09535913658769316 -0.1061363412622055 0.0
81 1 16.0582749821457 7.166278451727586 0.0 -0.13905815685680295 0.0363366600704851 0.0
82 2 3.926042535466059 14.669689455984237 0.0 0.04713723346451801 0.03128299838197814 0.0
83 1 4.200531702145452 1.7591930036577386 0.0 -0.0574192114166986 -0.037208676489786784 0.0
84 2 7.019614576235846 15.868881891795528 0.0 0.07925708166443594 0.007315926808307297 0.0
85 1 0.3189580061098332 0.3721187495278662 0.0 -0.03846984147707487 -0.01717142514584612 0.0
86 1 14.48932464010283 18.249096861795394 0.0 0.08728819285139898 0.14259204646727028 0.0
87 1 1.9712547869849122 18.914226482961254 0.0 -0.011287813116418194 -0.03414379817300914 0.0
88 2 2.029997270524372 15.543582301385728 0.0 0.0172580538620491 -0.07282354502887685 0.0
89 1 4.971025328710717 12.330872814991366 0.0 0.03392093554550596 -0.031841211464900716 0.0
90 2 11.392752499252776 9.225990168427114 0.0 0.03454964277404343 0.004302340914741024 0.0
91 2 9.524302678649347 1.180855617055999 0.0 0.035153996914882045 0.10186600414089247 0.0
92 1 3.9680178991827515 0.4547995189211274 0.0 -0.02383886855875443 -0.07504895165333039 0.0
93 1 18.180526692545254 13.940795540425517 0.0 0.04960450043537372 -0.03888267485838883 0.0
94 1 4.386862032717402 15.680152486802013 0.0 -0.10186080743932309 0.040969724157377777 0.0
95 2 17.785335881711013 15.53553754444366 0.0 -0.04481576402170493 -0.08366067887826346 0.0
96 2 6.043834284039163 10.635512759578068 0.0 0.005953888642683001 -0.040883341715710515 0.0
97 1 2.2855347615935258 14.452054318522151 0.0 0.05249523028215127 0.04946217540509093 0.0
98 2 16.381441573929067 16.29152284565754 0.0 -0.029122665125755277 0.0075315395466681095 0.0
99 1 7.971144631357658 13.143790378050664 0.0 0.13206982220142324 -0.0609049395228242 0.0
100 1 18.237871065007777 6.67527459659729 0.0 0.05129951139344309 0.07797893530139201 0.0
101 1 10.913235324537158 12.720538512389831 0.0 -0.0914850101455256 -0.12355544078173039 0.0
102 1 18.190417582131484 19.535041886370443 0.0 0.031750338987367906 0.03688590773422665 0.0
103 1 5.356160733343065 5.315971973583895 0.0 0.03589916374537234 -0.007903007572910493 0.0
104 2 18.909691006805822 5.546911666560153 0.0 -0.023523969863211376 0.05764666082994888 0.0
105 1 13.232629635225276 6.148382957773382 0.0 -0.0457466925071292 0.06494968261150565 0.0
106 1 19.737403689938272 6.192771470402073 0.0 0.11798113329764126 0.11310186055489055 0.0
107 1 4.620222460897178 13.021636910951596 0.0 -0.04399103306733317 -0.0812849335358498 0.0
108 2 8.289685337003162 3.0579097575882153 0.0 -0.11826985733544947 0.002812280199016773 0.0
109 1 19.308926622379353 9.781594432765377 0.0 -0.11036096451715964 -0.029082111802529793 0.0
110 2 3.9176272448933687 12.097163657024687 0.0 -0.06071850711480691 -0.010835581201412875 0.0
111 1 3.4914895932271106 7.882786288080085 0.0 0.09746402940458337 0.0573544284914207 0.0
112 1 12.134342977534372 10.407177928756273 0.0 0.01495472764826503 0.004173795496960742 0.0
113 1 4.175033822296309 7.857791179065391 0.0 0.05317456668948662 -0.13182723157141565 0.0
114 1 9.625105975639176 0.07659183887775542 0.0 0.0913487024437055 -0.10037492161750718 0.0
115 1 5.5057749554834015 3.965381803673686 0.0 -0.014866955560118918 -0.030415952752132727 0.0
116 2 19.19529192691236 11.496958225541832 0.0 0.058744471804106024 0.029141909377139737 0.0
117 2 2.7864547005680462 3.1534358918456884 0.0 0.008513767097532004 -0.005625551818601554 0.0
118 1 11.45490843270089 10.318069562242286 0.0 -0.02044933861374899 0.0471762964380117 0.0
119 1 17.510547703377338 9.020902808517214 0.0 -0.06008647618774899 0.10428373598260444 0.0
120 2 8.473097910607834 4.423237230941265 0.0 0.0026469436701606224 0.033269695615800524 0.0
121 2 11.15663697363621 6.783289930473627 0.0 0.11410899615794691 -0.023811664955536816 0.0
122 1 17.61657639280847 0.12864656298266175 0.0 0.05085831401398154 -0.014896819923430124 0.0
123 2 19.318200267107265 1.8549873845183307 0.0 0.014373075484976065 -0.027423611141189436 0.0
124 2 8.08842080251641 15.235284904109706 0.0 0.005361065695453585 0.08000210288688642 0.0
125 2 18.43723338651573 10.462896501338554 0.0 -0.06797770986630122 0.020553158807935294 0.0
126 2 1.8338796719365655 8.033443118679505 0.0 -0.005699991127995164 0.1140654426549826 0.0
127 2 0.6721368444025015 9.775691467309814 0.0 0.05143373995419222 0.02715612465918863 0.0
128 2 13.855838182119115 12.833629344005407 0.0 -0.03822238744005489 0.1397469518627426 0.0
129 2 4.650665857075513 8.916215759402162 0.0 0.008458620563433574 0.006773753618791335 0.0
130 1 5.128272632915119 3.3951699007332556 0.0 -0.09011985344424475 0.02188295397975167 0.0
131 1 1.4317565738882974 5.071902223227294 0.0 0.04308894114038133 -0.03766949612524583 0.0
132 1 16.939374770606506 2.201564500446484 0.0 -0.0026028299492782078 0.06808955869675974 0.0
133 2 10.084906817476094 17.02696197209839 0.0 -0.1133222707928776 -0.008870753896268069 0.0
134 2 4.6175716616199765 16.770747734357418 0.0 0.03503920989983473 -0.004404254924127847 0.0
135 2 19.59373915966383 8.718712591032185 0.0 0.008701483783560022 -0.04134562452000822 0.0
136 1 18.855411969788122 19.489791859886267 0.0 -0.029267550780752015 0.04251976789207035 0.0
137 2 15.191471009860521 9.353274744677691 0.0 -0.018841897096373548 -0.06652663494044087 0.0
138 1 15.647275078200748 1.8183188254898455 0.0 -0.05469966224626924 0.10169863105135978 0.0
139 1 5.439225081436646 17.527676528261765 0.0 -0.05944245838907715 0.022814147810778073 0.0
140 2 19.33083386530203 12.737021700010455 0.0 0.06974648791674962 0.07055910077549452 0.0
141 2 1.4775278190291876 6.793708440830962 0.0 0.0380189997698018 -0.021437442731869656 0.0
142 2 15.72166317971106 8.18627741773258 0.0 -0.10086197782379897 -0.07069125340010876 0.0
143 1 13.442306280111223 18.883278059120975 0.0 0.06196634176458186 -0.1414734637238091 0.0
144 1 12.32833460745267 11.06792998078794 0.0 -0.037591025634223944 0.028349493914805256 0.0
145 1 9.51940114497498 9.300186077557237 0.0 0.011943169063046872 -0.061998629470003605 0.0
146 2 13.824207002392955 3.5274693296475332 0.0 -0.013421068918677786 0.017448632799912777 0.0
147 2 7.7343327358986675 7.779657084056991 0.0 0.0017459259975300748 0.0770851863459298 0.0
148 2 11.815890293458736 2.695408342286196 0.0 -0.03466422105114099 -0.042050698445821884 0.0
149 2 10.595726882648549 3.0730966112078417 0.0 0.07522006940290529 -0.05369823673283904 0.0
150 2 9.468217069372951 2.4429080321689463 0.0 -0.011796125751380874 -0.081237754228489 0.0
151 2 11.814509793808908 13.427808418951166 0.0 -0.0949889514436206 -0.00033935260947329774 0.0
152 1 1.065107744735589 14.182461883047434 0.0 -0.0060099833630055674 -0.017770895142227825 0.0
153 2 16.058019540636245 2.8922840113780923 0.0 -0.07126805510274364 0.0603011197159756 0.0
154 2 12.600820013579625 1.775492779943073 0.0 -0.004572172126770276 0.10883409078030391 0.0
155 1 0.7442641406668284 12.707841097947183 0.0 0.14613166045067227 0.18871315497828775 0.0
156 1 17.13186623102252 17.78606288394041 0.0 -0.009613506951345144 0.04300470656769724 0.0
157 2 17.040857036628918 6.727475671593122 0.0 0.018408886773018465 0.12205699930167296 0.0
158 2 11.518533505254648 14.962321287734621 0.0 0.0041798943077396645 -0.017235918714540457 0.0
159 1 6.739884094720539 12.66483544829128 0.0 0.03222892343402876 -0.0564650642962792 0.0
160 1 6.843738005138016 13.345877593276178 0.0 -0.06983843041742961 -0.08115465680485773 0.0
161 2 19.146988961780494 15.40732445346456 0.0 -0.0883427668431845 -0.027737902703295438 0.0
162 1 0.6576502127400791 6.074460320671857 0.0 -0.09886338918460277 0.14286332472867397 0.0
163 2 11.419917162809183 17.215309175111553 0.0 0.030345165285565166 0.0627593077775375 0.0
164 1 4.870802713242047 15.177724505010916 0.0 0.03429604866831103 -0.08950670667985215 0.0
165 2 14.471794941569327 8.244045011918109 0.0 -0.0037808715991759115 0.015316949827747735 0.0
166 1 2.5980224290855958 5.482200554480172 0.0 0.07891036744101929 0.08785085247530597 0.0
167 2 17.106046590051886 13.538705454144246 0.0 -0.04915912497590352 -0.03431181068163154 0.0
168 1 0.3166304779915722 19.481835700154033 0.0 -0.048898745013563186 0.03582512499173464 0.0
169 1 6.144262440470874 3.745690101047088 0.0 0.024145209792697832 0.16978839615270822 0.0
170 1 11.54452571623567 18.901713919084823 0.0 -0.002062839571565238 0.049141433868882665 0.0
171 1 0.9601144488320794 8.725036645095201 0.0 -0.038498901650601845 0.03421044608044978 0.0
172 1 15.137412777801291 18.24527551303994 0.0 0.0765195329287152 -0.08592862312735729 0.0
173 2 18.121083316769383 12.815914326097523 0.0 0.037185852512829 -0.011283653194048282 0.0
174 1 10.905181900684337 11.537100757754574 0.0 0.06399244487743627 -0.030891210957340962 0.0
175 2 5.957806582734349 15.152890068185497 0.0 0.006402724971032434 0.01658827901543569 0.0
176 2 13.053786504649512 15.686589254857568 0.0 -0.12078135490770897 0.04144599653775593 0.0
177 1 8.766517325721496 6.983619094585557 0.0 0.032017687830347884 -0.06830146456045098 0.0
178 1 11.493196180116813 3.7198306864354342 0.0 0.006864325643313708 -0.13757779146842639 0.0
179 2 8.958507794976398 17.609527818769926 0.0 -0.04095870365310052 0.009319434682536428 0.0
180 2 16.0752894396207 0.7743170925032595 0.0 0.11062580601668899 -0.06196880166412662 0.0
181 1 5.810189560723538 3.1608079791822816 0.0 0.07233171687156793 -0.04576683621265427 0.0
182 2 16.187926313264317 18.3872788353108 0.0 0.03765030697080615 0.004845532832073446 0.0
183 1 19.461942853748894 19.220969603277787 0.0 0.08324569403088876 -0.028416645009077902 0.0
184 1 14.627646950594263 17.561766207792257 0.0 0.13661941876506506 -0.014956076340886974 0.0
185 1 16.335957895633058 19.476050372831452 0.0 0.16483385401948583 -0.036053828607362 0.0
186 1 9.887734813196543 12.195312097528594 0.0 -0.014624979111611902 -0.047702648988916956 0.0
187 1 4.6795216106475435 19.120422115661004 0.0 -0.03077698098020514 -0.013764058953052095 0.0
188 1 3.5386617244983367 13.096878409070522 0.0 -0.07415623946113682 0.11762379136017245 0.0
189 2 4.280156318201863 5.1904370255876096 0.0 0.04859062171150657 0.07579042366366362 0.0
190 1 5.700608907166382 9.473801386348217 0.0 -0.06399763414789066 0.0004215268324615767 0.0
191 2 13.954113148939184 9.466865444995348 0.0 0.09716527253825039 0.04201710019804536 0.0
192 2 6.365539124741224 2.1363023239401913 0.0 0.05060438906000703 0.05732483620138241 0.0
193 1 11.971651772590773 16.00530539207637 0.0 -0.054113744611565234 -0.007696114494135864 0.0
194 1 2.478786879006472 19.370791477917717 0.0 0.07339030141121797 0.000542257447090025 0.0
195 2 0.903785311233529 1.2812846413589303 0.0 -0.09097335879380147 -0.02353691191865872 0.0
196 1 4.484471030308699 0.008056689085794785 0.0 0.0599658605347176 -0.02530580712638527 0.0
197 1 10.090689593256515 7.381164494659394 0.0 -0.10095515988484158 -0.14462748096861516 0.0
198 2 4.937778994604599 11.189753096120182 0.0 -0.0632652829001655 -0.0018003130686578995 0.0
199 2 8.668197116092438 10.912948631305483 0.0 0.10101514396009072 -0.054542185003193536 0.0
200 1 1.5941879195505149 11.684816706850022 0.0 -0.04020291752862354 0.10135282380128834 0.0
201 2 15.154981535491276 19.361902143203892 0.0 -0.01306526990512539 -0.0930927314977469 0.0
202 2 2.3168212093673097 4.414370491913626 0.0 0.049731319677155134 0.006797310325725669 0.0
203 2 1.3678557125508524 0.08053308767772313 0.0 0.01984122855359354 -0.026199483634684134 0.0
204 1 5.221439347937647 4.593364456610006 0.0 0.013965108204309632 0.00208610744302559 0.0
205 2 18.973484983260082 4.3061536007338574 0.0 -0.067167888597712 -0.01622760627969494 0.0
206 1 12.981155086767462 12.178241482195714 0.0 -0.023261560892355673 0.03751251545974017 0.0
207 1 6.893312524608645 8.489763632148053 0.0 0.046954276234238104 -0.012998869809883429 0.0
208 2 10.88565619261997 16.084612619078964 0.0 0.011236142240007942 0.019761164102748217 0.0
209 1 1.8453425378698634 17.614526785754144 0.0 -0.09227612352795454 -0.07093488608860798 0.0
210 1 13.834233490978958 7.313048152465546 0.0 -0.12875207594988866 -0.03604234181358034 0.0
211 1 17.725371666230185 14.443184442692765 0.0 0.01696879661410745 0.03632339976348768 0.0
212 1 14.94968294967707 14.455352484911662 0.0 0.005435592059353533 -0.023970226799563604 0.0
213 2 3.4335906276346124 17.120531086279243 0.0 0.03647609661346027 -0.03281630540088406 0.0
214 1 7.046381116541111 12.066638233291862 0.0 0.06288313046514078 0.09184372892409153 0.0
215 1 11.425438882839206 19.575213320111096 0.0 0.16464085148495602 -0.03583427950058712 0.0
216 1 4.789594933465376 4.027044937956796 0.0 -0.04047038299474515 0.08377233485511819 0.0
217 1 1.623563619134879 14.541353675367468 0.0 0.014191056918087764 0.071795899953393 0.0
218 1 5.191302560531121 9.941010498604337 0.0 -0.014410545956774523 -0.06379320844385426 0.0
219 1 1.2008073718939682 4.43958040740889 0.0 0.06344115905995623 0.022908156084440193 0.0
220 1 7.4619723970928025 13.598465034268306 0.0 0.002931158993135339 -0.03268753240618939 0.0
221 2 0.5671498059894179 7.725866931320612 0.0 0.09453206948416688 0.16147747125312145 0.0
222 2 4.434969643763233 18.056246656384385 0.0 0.008578426815885908 0.01508337521818101 0.0
223 1 7.360129734966031 12.889000177514031 0.0 0.10951846384511076 0.0067140880063365485 0.0
224 1 7.475370065495598 14.295626134776565 0.0 0.060697941773966375 0.0032030483647486822 0.0
225 1 14.128545574605276 18.822083060568033 0.0 -0.08045116540588146 0.01048339445070356 0.0
226 1 1.0677449857076506 12.097410287940214 0.0 0.06087142436407779 0.0405373577435872 0.0
227 1 14.769210932907724 5.800441046921907 0.0 0.04644820038285666 -0.03461535402274954 0.0
228 1 0.4096981993694891 12.100340822348976 0.0 0.07900857233975686 -0.0723753725343342 0.0
229 2 11.750893369449633 7.96650665935913 0.0 -0.08921097883631077 0.018676542217049567 0.0
230 1 10.869874238931978 14.058624895135537 0.0 -0.0007296750466038645 -0.11274772064119473 0.0
231 1 18.942920175328688 6.635086043243908 0.0 0.012263645571460362 0.10525771749269996 0.0
232 2 17.352788034503707 18.838951019229484 0.0 0.14659112340133004 -0.008674643022637787 0.0
233 2 6.566345415370073 6.081510798976237 0.0 0.06442123378137248 -0.05324500980664741 0.0
234 1 13.719602223877905 6.638461827487686 0.0 -0.049098658366345034 -0.04516497474641782 0.0
235 1 2.967637963456251 8.898323766266186 0.0 0.11917079056648422 0.05831524806979111 0.0
236 1 12.93979622677151 13.430163445739801 0.0 0.044911290061026475 -0.058761231465790334 0.0
237 2 17.035553209250025 7.991849112885998 0.0 0.05402559758667503 0.017820433843261846 0.0
238 2 3.5967745996711455 19.162230217431606 0.0 0.022670303498043876 -0.059578215657001776 0.0
239 1 9.408418143178393 7.3071531971823775 0.0 0.05167644226749898 0.0641830704900943 0.0
240 1 6.565510281764622 7.735217153130426 0.0 0.017254479265714 -0.07023695534873146 0.0
241 1 7.301666248510612 18.14544106718963 0.0 -0.13856210953179876 0.0570015071317996 0.0
242 2 10.786865618393783 1.8341215926575642 0.0 0.019767162568291984 -0.009045514671992116 0.0
243 1 6.624518485390816 18.14165281109533 0.0 -0.12477212007293909 -0.044612802775090964 0.0
244 2 15.920017385995033 10.404469867633464 0.0 -0.003263789931461261 -0.09082420988195429 0.0
245 2 10.591534152479063 4.321577577057513 0.0 0.029780630875364554 -0.05114312824938942 0.0
246 2 5.6408200943523905 18.627229523681038 0.0 0.0010873184390883077 0.09267673983253262 0.0
247 1 15.31398364618744 17.617437457899303 0.0 0.09802100632220695 -0.02711777542400044 0.0
248 2 9.481633102383109 3.699981368527058 0.0 0.023875359951098456 -0.03761965865739149 0.0
249 2 13.885167970952494 0.1473724456386662 0.0 0.10220393403362141 -0.056700800553586006 0.0
250 2 15.570453010996058 15.342716600377633 0.0 -0.013047821947128245 -0.09274444658444035 0.0
251 1 9.310234110883522 19.236668864175662 0.0 -0.20566285371205456 0.10058239192709972 0.0
252 2 14.619006557980782 10.530254313483574 0.0 -0.04731149534756031 -0.07278068495375291 0.0
253 1 6.990383296234135 9.297753689284116 0.0 -0.0921072747242821 -0.04036270948650468 0.0
254 1 19.67972942579979 14.45763883482633 0.0 -0.1112047005458026 0.10097297023368022 0.0
255 1 13.44339497215692 7.889805221214124 0.0 0.00470825456336498 -0.08350314913226706 0.0
256 2 7.201182138203261 1.225052836093543 0.0 0.01524565639363742 -0.03616429460248698 0.0
257 1 1.2923536992951647 18.753864324143155 0.0 -0.055970408452594565 0.001949857051243924 0.0
258 2 18.36417464470357 8.329375925450185 0.0 0.07280046052089217 -0.0211024371721573 0.0
259 2 16.442073751916062 9.204172983284472 0.0 -0.0591448858290403 -0.010013165170563549 0.0
260 2 1.8088825162979572 10.610980680801495 0.0 -0.09739157683580375 -0.10883961910948907 0.0
261 2 8.702542625711514 5.8176584011985115 0.0 0.0014045686478936122 0.00011169566985058408 0.0
262 1 10.228176519206267 12.83817332823912 0.0 -0.016778989541211122 0.014031830798225712 0.0
263 2 16.07039684788728 12.729057638268154 0.0 -0.012388723322569621 -0.014109248634961342 0.0
264 2 3.456495066872744 6.180882986072234 0.0 -0.024215848604902602 -0.022823211705974136 0.0
265 1 9.37346088213969 6.654300528199475 0.0 0.10026162887333928 -0.05520908567164689 0.0
266 2 10.256368951562797 15.031833529036778 0.0 0.06790018216603248 0.07672433157092998 0.0
267 2 18.310401221141433 17.83387114998542 0.0 -0.011943926816492579 0.036742416352397 0.0
268 1 18.801376206692538 13.68739767620547 0.0 -0.058609659423058735 0.06492266384271123 0.0
269 2 11.839274088827839 12.085054758483242 0.0 0.15674671974132628 0.019101656256791753 0.0
270 2 14.884578688642303 0.9776437148770032 0.0 0.014297405412187617 -0.020040908402920964 0.0
271 2 2.874928444728635 10.020541186524376 0.0 -0.018835054085781885 -0.002374121780943505 0.0
272 1 1.732401110112115 18.266294190662748 0.0 0.0014968909377651512 -0.027884166701416784 0.0
273 2 14.677421767489 2.3934470125112153 0.0 0.0201895979976265 0.08617520832330669 0.0
274 2 12.624240675577202 16.89464104206679 0.0 0.08952946750793449 -0.11187240931933692 0.0
275 1 1.2211813990514215 5.700111903931344 0.0 0.10069036825757186 0.040261335774007416 0.0
276 1 5.479961002441434 5.970606680753855 0.0 0.028741526106511824 0.10162836878076854 0.0
277 1 19.43950758881506 0.14327507813099305 0.0 0.018524707103932742 -0.14109201545564218 0.0
278 2 15.437942985447908 4.921356976083883 0.0 0.0049316173552508245 0.007398703213294122 0.0
279 1 10.117165550167824 8.097124838341568 0.0 -0.04290884766602665 0.04700028092242038 0.0
280 2 0.29684688285788174 5.049851110349012 0.0 -0.010788053708471709 0.00023432384866605135 0.0
281 2 18.0706548649593 2.093326157080476 0.0 0.019144342247497226 -0.023493016998072117 0.0
282 1 5.1491020159927965 19.60832785336901 0.0 -0.06578906070528953 0.1542969175400048 0.0
283 2 5.281310911351872 7.751287404443709 0.0 0.08525683586973035 0.03833087491218949 0.0
284 2 12.636352852878767 9.391843677641106 0.0 -0.03079494554113246 -0.052394499481434466 0.0
285 2 17.858236046231045 11.574764526032437 0.0 -0.07651413931697972 -0.030683336059441676 0.0
286 2 8.126479394611453 12.053459874599655 0.0 -0.09974645418861776 0.051879622255729126 0.0
287 1 3.321559134241055 0.7198967725165607 0.0 0.042997213399716024 0.04037377747030018 0.0
288 1 2.34750337087615 17.188632684682702 0.0 0.09736987596884958 0.051143021023655956 0.0
289 1 6.862553780091713 14.031166205311782 0.0 0.04320757591931602 0.032663043937372994 0.0
290 1 9.44575764196425 7.982416662989767 0.0 -0.012667088853156176 0.08656567124527048 0.0
291 1 7.157738875179613 2.9119709484157124 0.0 0.02658253770174574 0.03424988727419521 0.0
292 2 15.000219781709097 13.360133122194913 0.0 0.07505447807508324 0.05166642003280325 0.0
293 1 2.4999919996103035 16.540363858576068 0.0 0.03262223391944931 0.0617659296562421 0.0
294 1 13.80108717382214 5.764249423502677 0.0 -0.20334350277777088 -0.04518256093843335 0.0
295 1 17.107181232172664 12.406733707332064 0.0 0.12777010139269968 0.07044099407762557 0.0
296 1 12.820819188800314 8.222002649733197 0.0 -0.06925219533366918 0.0347776009218836 0.0
297 1 17.05737848728526 14.64745482148317 0.0 0.02750421539406746 0.10928916346923409 0.0
298 1 19.616751067927083 0.8201425343235281 0.0 0.09076669100911343 -0.034091251657184955 0.0
299 2 15.115728913636556 16.540491861792724 0.0 0.040447200719043015 -0.07466293847685103 0.0
300 2 10.61957905291975 0.5866920977577971 0.0 0.03831170427113469 -0.01981074072006887 0.0
301 2 12.347987008706578 18.170699602397935 0.0 0.08026405220342227 0.03824919655330156 0.0
302 2 6.319956991973771 4.816783630436613 0.0 -0.10875668771459322 0.008784522532965027 0.0
303 2 1.8608664235597543 2.200809778530021 0.0 -0.0009816947078411396 0.03040878209186033 0.0
304 2 17.209491758192314 10.211295491676099 0.0 0.01717991317954932 -0.038702782628176564 0.0
305 2 15.26095022484719 11.684321326031277 0.0 0.014516583082729415 -0.04277281216635866 0.0
306 2 5.980432542353258 11.872114055256986 0.0 0.08602976359431891 -0.04619010496868705 0.0
307 2 8.3754521321588 1.7072313964166685 0.0 0.008139352542999688 0.05403475671313118 0.0
308 1 11.014339254569611 10.863121108386348 0.0 -0.13085899252508063 0.089749882241021 0.0
309 2 15.109927614333982 3.7083944791885344 0.0 -0.006896199404011828 0.006220022494550026 0.0
310 1 3.0240692664649824 16.113278253365074 0.0 0.17557092002950106 0.0053717203896525715 0.0
311 2 2.689361176957612 7.142349337120609 0.0 0.010852000239685255 0.12568336644429617 0.0
312 1 13.39337173112021 8.55287808266572 0.0 -0.08848146653586376 -0.031366517208210126 0.0
313 1 16.930354931678362 0.08206796653955348 0.0 0.06716805215047549 -0.06534340197615938 0.0
314 2 9.767990343778784 13.916264815922052 0.0 -0.011329527694453204 0.009366909395844178 0.0
315 2 1.9075792078330718 12.78637777275099 0.0 0.05401088068323627 0.02698828855637079 0.0
316 1 3.5660949141466656 8.543153721492509 0.0 0.05857567453467627 0.049959949933009076 0.0
317 2 5.880959124646662 16.50023317759391 0.0 -0.07119208063681956 0.067888457204852 0.0
318 2 8.563598300886017 0.31746746899547307 0.0 -0.00158076071588441 -0.051254044675517994 0.0
319 1 18.047716553174613 9.426386120591133 0.0 -0.05574275154087819 4.52760646467049e-5 0.0
320 2 8.142400837405406 16.632140630969612 0.0 -0.018926858735798795 0.020274404158139872 0.0
321 1 3.717546248907334 15.949588326391057 0.0 -0.11454104973451552 0.04185932100929471 0.0
322 1 1.9071672073543602 5.554115254478712 0.0 -0.012088186602393768 0.06108351795592479 0.0
323 1 6.4059132039384945 8.957022318920394 0.0 -0.02784296080765953 -0.08226627073915972 0.0