ITEM: TIMESTEP
0
ITEM: NUMBER OF ATOMS
400
ITEM: BOX BOUNDS xy xz yz pp pp pp
0.0 19.7609 0.0
0.0 19.7609 0.0
0.0 10.0 0.0
ITEM: ATOMS id type x y z vx vy vz
1 1 5.450143793591255 17.012917859277152 0.0 0.02031706682580952 -0.06126133710714228 0.0
2 2 16.93555812901306 17.884692454139053 0.0 -0.021018729708279164 -0.013192629199969151 0.0
3 1 1.9418707817310217 18.51855525535148 0.0 -0.0017799988710705938 0.03952308140184638 0.0
4 1 13.340230456658647 16.92009850226601 0.0 -0.09769459419330087 -0.06569291840485865 0.0
5 1 1.581451984106429 13.675263027930399 0.0 -0.06511927723707361 -0.01807779240721512 0.0
6 2 14.258870239590165 3.128046672907587 0.0 0.024517680531033672 0.0020426610130555457 0.0
7 2 0.48240642899509484 10.805284305513565 0.0 0.013907861050798878 -0.07679436903396505 0.0
8 1 8.015667188866647 13.12231304426586 0.0 0.04292192629384703 -0.14655021581346914 0.0
9 2 18.188930096394987 4.532870486183384 0.0 -0.03712046285672648 0.08576622270626047 0.0
10 1 0.7499950191635707 0.9917588172752075 0.0 -0.06432809401824477 -0.05630374035068787 0.0
11 2 2.790910292929042 15.35931252764778 0.0 0.009372974818546204 0.031066487505376612 0.0
12 1 9.266083100676594 12.90148921702267 0.0 0.05280756811131278 0.0014554591047438738 0.0
13 2 12.723603548163501 0.09663120694169978 0.0 -0.05202865714354299 -0.0067711154609608635 0.0
14 2 12.489251407804545 13.731165514251567 0.0 -0.110799470687302 0.06171280061188082 0.0
15 2 17.02206659624565 10.237555522206321 0.0 -0.039047933474485805 -0.04961100096603807 0.0
16 1 9.39499533086058 18.26517804873385 0.0 -0.03451510648318714 -0.010977671235143883 0.0
17 1 14.746395685652406 9.2154342757674 0.0 0.0552277150548085 -0.08620206480896835 0.0
18 2 4.020761017083577 14.99786516919735 0.0 -0.013208859927696768 0.0372567597133144 0.0
19 1 4.196110496396899 4.949858152369392 0.0 -0.07671072636964645 -0.028715703959723355 0.0
20 1 9.433506087582211 0.6934985717664234 0.0 0.09333168406107215 -0.027934431519353126 0.0
21 1 10.920782970715447 13.708079236843329 0.0 0.018511560439485555 -0.024349315706363506 0.0
22 2 4.998881715647491 18.64549049370763 0.0 0.03201303521793521 -0.04463701252367245 0.0
23 1 7.1162541916670214 7.45318371336212 0.0 0.062011095776847304 -0.0464318363837604 0.0
24 1 7.710159352913976 11.359877194742262 0.0 -0.09028814951558353 -0.08365001108401099 0.0
25 1 12.888543897370083 4.934762892238564 0.0 0.1362482119760062 -0.0718489463221206 0.0
26 1 19.50921537355328 5.938628709688996 0.0 -0.09639582169749102 0.08297757072426512 0.0
27 1 11.05422899804244 14.60654888661625 0.0 -0.029636420214220145 -0.003523755623168462 0.0
28 1 9.118115208895684 15.220838975019836 0.0 -0.09026823659365117 -0.04103969497722858 0.0
29 2 9.25784855306361 9.510000573653873 0.0 -0.001518816781037947 0.092064983798542 0.0
30 1 4.719519263318194 15.89817195999084 0.0 0.13214387060393123 0.04373252775062236 0.0
31 1 4.741109877694665 4.391782903401535 0.0 0.09771105697379646 -0.09792732513709582 0.0
32 2 17.91548950280956 14.708327496211314 0.0 0.0635407269401606 0.13486497983885923 0.0
33 1 16.344274434662275 8.630206167729861 0.0 -3.754516886623003e-5 -0.022809361792351563 0.0
34 1 18.960287905648183 3.792661611777504 0.0 -0.06682550891025182 -0.10892576298428394 0.0
35 1 9.81159175032179 1.2177571300512264 0.0 -0.013790173016516473 -0.0016505999433398734 0.0
36 2 14.088721023746345 7.164143585509859 0.0 -0.013181827084161907 -0.02280805993975603 0.0
37 1 2.01433126531237 13.174116537132264 0.0 0.05950843338068223 0.08386642263934989 0.0
38 2 2.6923872905848474 19.29994332013495 0.0 0.007285708719383236 0.03156640848205823 0.0
39 2 4.677518355711824 3.2463881522768494 0.0 -0.013116202194841088 -0.025222034023995654 0.0
40 1 3.9021893086121047 7.334551251129585 0.0 0.04007420153163935 0.017357038040306767 0.0
41 2 0.7572184848730736 5.542199225504729 0.0 -0.036478344370125274 0.06210708541524293 0.0
42 1 8.936204442707671 2.996800762775334 0.0 -0.0023217253848794184 -0.05088286681177296 0.0
43 1 8.77307204430176 8.47232778902655 0.0 -0.03305533319663625 -0.00078111870080971 0.0
44 2 16.994332302418503 11.491508568788351 0.0 -0.04493997995565332 0.08605866676722981 0.0
45 1 2.8721169556767645 17.658527119094966 0.0 -0.1005921980982493 -0.10818768612466798 0.0
46 1 3.3165033133361224 2.2770512187773617 0.0 -0.012779247337311518 0.02742039200558695 0.0
47 2 19.155604740447835 17.490931420826293 0.0 -0.002804970570279539 -0.0963794632448091 0.0
48 2 3.6567398083808578 3.9391262676000607 0.0 0.02571155653094972 -0.012392386230527106 0.0
49 1 0.32305234223154966 18.1831153382162 0.0 0.0492990021728907 -0.07813345536956968 0.0
50 2 17.255082332763195 0.5820826052280011 0.0 0.01669155755622792 0.12026226274975313 0.0
51 1 1.9326830613742068 3.9822751699471906 0.0 -0.06718511156286384 -0.012727902723695391 0.0
52 2 9.246945554955463 19.386731880768274 0.0 -0.04758305714693371 -0.02115566721935079 0.0
53 2 10.483905565670865 16.12308174822079 0.0 0.07763105468819408 0.04938103998786326 0.0
54 1 1.5391047776272795 10.473770523811927 0.0 -0.01995189246338869 -0.0496200200674768 0.0
55 1 11.691256352668201 4.5232042072506635 0.0 0.07564766635635188 -0.13179478182044974 0.0
56 1 2.209969223478275 17.627038571724764 0.0 -0.11009130891760183 -0.05403166673185439 0.0
57 1 9.024613261531142 6.273356328963387 0.0 -0.08326158756669048 0.0005401402401183134 0.0
58 2 12.954134666378518 7.627628341543064 0.0 -0.04184660962036866 -0.0742732515758238 0.0
59 2 16.908674587561915 12.778441067517392 0.0 -0.005728560998529057 -0.023448477695894913 0.0
60 1 1.0253508774463178 12.38888860111807 0.0 -0.009925570696846573 0.12024701768093037 0.0
61 2 14.743983130814833 10.32143195113354 0.0 0.008096876389549236 -0.013629067963238404 0.0
62 1 8.501899040901893 10.335383981038579 0.0 -0.02971739516595488 0.040954257778413154 0.0
63 1 11.53325235264494 15.8140237238585 0.0 -0.046639800225282885 0.03710700310719622 0.0
64 2 6.351575825314428 1.8693192621831187 0.0 -0.0606281879595324 -0.01296558455634244 0.0
65 1 4.279230315322307 16.38455825546102 0.0 0.01576115723730801 -0.026686897498567137 0.0
66 2 8.056325875628755 14.856291823608599 0.0 -0.07710186226173728 -0.06280191496626149 0.0
67 1 1.3496066185797482 13.009079129972168 0.0 0.0968319768948917 0.06453879987309227 0.0
68 2 16.38971068369313 6.262170417297261 0.0 0.014011188606290886 0.04417772740131775 0.0
69 2 7.361584486845876 10.318492941985275 0.0 0.003077372080343783 0.02909196161431796 0.0
70 1 3.6420487595455473 6.724978860240165 0.0 0.035438407584750635 -0.04348493170209256 0.0
71 1 2.2172050587349346 10.851614784495043 0.0 0.038220549770911216 -0.023145495344620348 0.0
72 1 5.569664857999951 17.677626713094078 0.0 -0.06541008901226424 -0.10044600221768311 0.0
73 1 10.30398405883308 6.162304945009133 0.0 0.09082308079892563 -0.09611057172558335 0.0
74 1 7.246695020700084 12.008504534580736 0.0 -0.06299772706477458 0.01241845211404993 0.0
75 2 8.274030038054944 2.0510670880189896 0.0 0.007962157291282985 -0.0013901194413874394 0.0
76 1 17.996040177800914 18.37337057774523 0.0 0.06438641587715503 -0.06344619308070927 0.0
77 1 17.311750593262367 1.6659575151030377 0.0 -0.05109156819964285 -0.0977669979923996 0.0
78 2 6.214675016202207 19.27061994182805 0.0 0.07137708483979938 0.059205522683441786 0.0
79 1 9.624536699064194 3.0727485594077217 0.0 -0.024303652181192653 0.04676248378104813 0.0
80 2 8.947793892262732 4.099944317358785 0.0 -0.0029153508057070186 0.012906642903217828 0.0
81 1 4.015481726074708 2.1958053614091844 0.0 0.06427492568605732 -0.0367176610383075 0.0
82 2 14.500886391862455 15.244625640961516 0.0 0.08957743187570108 -0.01546588760603962 0.0
83 1 5.135805923437741 5.693669507199544 0.0 -0.04134147359337295 -0.02101712669660953 0.0
84 2 5.964046450620607 3.1046838164156623 0.0 0.07012263953504873 0.005236873485776682 0.0
85 1 7.2403650881758255 5.742468666825156 0.0 0.012088933414711941 0.06415009289411472 0.0
86 1 9.467869746246702 16.494616575547617 0.0 -0.07730779178597025 -0.06624917234457688 0.0
87 1 9.996669871015483 4.349893925855872 0.0 -0.021666994926858165 -0.006197403392695895 0.0
88 2 18.454541515762156 5.747564685380546 0.0 -0.021737971819520807 -0.06826339935890714 0.0
89 1 13.066566961282279 17.531404410095476 0.0 -0.10031081989348309 0.030769971331804674 0.0
90 2 5.947034729999642 16.040850203930873 0.0 -0.06799575316283495 0.06728387083085657 0.0
91 2 18.918331722379676 6.876161802507758 0.0 0.12079187437509438 0.011888469176761946 0.0
92 1 18.734315845991873 9.218387891508755 0.0 -0.014713295260065807 0.0455530426732894 0.0
93 1 10.106492101960963 11.909449058381908 0.0 0.06448912996934096 -0.002280625039700526 0.0
94 1 9.873223821067695 7.885154297477535 0.0 0.01730823328513395 0.1074327210238929 0.0
95 2 8.426491545694343 16.095172614432666 0.0 -0.02438977266969787 -0.044162261536338135 0.0
96 2 18.01120149627222 13.447297240264254 0.0 0.06738717830483913 0.024520361878252996 0.0
97 1 4.039308967151016 6.180971548672225 0.0 -0.018834856649578242 0.2068112186254826 0.0
98 2 5.297654324395178 14.990761265970692 0.0 -0.04164060993957872 0.018711906409991513 0.0
99 1 0.24562024483392134 14.780401621918738 0.0 0.013147936745222983 -0.03237841898790965 0.0
100 1 9.282941005902417 2.429295104684532 0.0 0.031011355068218935 0.10525241857842638 0.0
101 1 2.541987859938307 18.222006811973323 0.0 0.04166923085258951 -0.061911662540492296 0.0
102 1 15.0323316301809 5.1393309847598365 0.0 -0.015066113489351775 -0.17817347405474743 0.0
103 1 1.1249397750015764 7.634988498633207 0.0 0.10751743542810625 0.19240684777175698 0.0
104 2 13.993103511289057 4.590428738025354 0.0 -0.04002364845962588 0.013843746258725843 0.0
105 1 0.4350393080516096 12.010410453586196 0.0 0.019727925103441724 0.035059491519246894 0.0
106 1 10.168019348120556 10.118478260984691 0.0 -0.029372449174062183 0.08849312106109562 0.0
107 1 1.7523896786286557 7.8159054790120015 0.0 0.10543942531270635 0.04251251910983073 0.0
108 2 18.62505175133689 8.097679903004284 0.0 -0.017582811611755525 0.007155756726373477 0.0
109 1 0.4617677190473733 17.49781571082809 0.0 -0.12879937059652014 0.09857517678311654 0.0
110 2 9.275786488904103 14.13773135325892 0.0 0.058645835462813344 0.11069779685816439 0.0
111 1 5.013985639627205 6.791828704591876 0.0 0.06711125374754848 -0.07860323249859763 0.0
112 1 3.6965649648642462 16.719356348369864 0.0 0.09456722206452062 -0.12128100436543816 0.0
113 1 13.702427147056481 18.617224831117372 0.0 -0.0656276585908072 -0.11767347176624243 0.0
114 1 15.376636611837291 5.733281503077235 0.0 0.02439548850263115 0.1148379331870058 0.0
115 1 17.670958845399195 6.506435777338082 0.0 0.0459003800211971 0.003011442050180432 0.0
116 2 11.481722256562602 16.893897284561866 0.0 0.03697921657343136 -0.04247473352412146 0.0
117 2 5.171305642439528 9.884749650381064 0.0 -0.087835936135262 -0.07958517541526088 0.0
118 1 11.470117960893653 13.302099865414819 0.0 -0.17213152215364652 -0.06496526753284641 0.0
119 1 10.993528120632803 6.205350134801967 0.0 0.007452840479565233 0.0500843546333366 0.0
120 2 15.871535848190385 12.119877757596365 0.0 0.0694799013788637 0.05807688331887172 0.0
121 2 8.458852523388883 12.119343898909541 0.0 -0.13920666671995743 0.09172863984370695 0.0
122 1 0.0945255683160854 2.0519307276975662 0.0 0.021291091621154525 -0.04937896441952635 0.0
123 2 2.369340609616494 1.7061654500216943 0.0 0.007739657975988678 0.000907934619128091 0.0
124 2 15.105007500733654 4.030812300699418 0.0 -0.014839436183887911 -0.016187194080196535 0.0
125 2 19.10075878202136 18.69787826622121 0.0 0.024354535690200508 -0.0011706200915536813 0.0
126 2 6.178557289382941 5.459886274405564 0.0 0.04747889236630378 -0.123103007323348 0.0
127 2 8.93121658530027 7.359710133175551 0.0 -0.004628247779117871 -0.016557608292434165 0.0
128 2 11.166949698479081 12.22152608240177 0.0 -0.11413632263757773 -0.057931987659848944 0.0
129 2 13.735010868740563 9.618069802437976 0.0 0.00042401611852006967 0.05360129320324556 0.0
130 1 19.622961005202928 3.7780772840953656 0.0 -0.01221952988786609 -0.14163790856758016 0.0
131 1 8.296884193214314 3.179584078030456 0.0 -0.13279299105897166 -0.06809842133455594 0.0
132 1 1.560799251647759 11.147057576817625 0.0 6.079718912273181e-5 0.11286923326592363 0.0
133 2 7.207818694948516 16.071257515033917 0.0 0.038722744173879796 -0.008914026247642676 0.0
134 2 17.37659922379626 8.166531134273866 0.0 -0.10901614547585528 -0.0145312809828896 0.0
135 2 6.4584708260518084 4.245580486681604 0.0 -0.0586846217523516 -0.02138011297416565 0.0
136 1 6.554406622511172 11.769428165149186 0.0 -0.008649141496197672 -0.021613297890163564 0.0
137 2 0.8658353838534361 4.257700168366752 0.0 0.06737635016696389 -0.04333441186767533 0.0
138 1 14.965455856893108 19.11483323885949 0.0 -0.13204203834576042 -0.10949738049251519 0.0
139 1 0.6762537903515021 1.7190156554328688 0.0 0.12530224696730372 -0.17786441279635282 0.0
140 2 14.164072414725373 17.650472199168423 0.0 -0.052137390617788194 0.06886931886320251 0.0
141 2 4.290649544869171 9.007153022769579 0.0 0.03503230144588009 0.06055301565459602 0.0
142 2 15.381943851711005 2.383633803168267 0.0 0.07408482602510477 -0.00654189270554746 0.0
143 1 5.649451642983525 6.978411097053161 0.0 0.013306414544685244 0.041864151407902186 0.0
144 1 2.562619227863794 4.2082061634841965 0.0 0.01116837721114832 -0.1753911517911961 0.0
145 1 7.194356926159039 5.068430613572044 0.0 -0.07362153472035088 0.15202607178869032 0.0
146 2 10.792342333331343 5.12758490194137 0.0 -0.0636288246978528 -0.04521037298648734 0.0
147 2 16.29531249104369 7.5353132513782235 0.0 -0.035480338879270566 0.07483701252220977 0.0
148 2 13.522092968892782 10.844364013016099 0.0 0.051990774031896926 -0.019057179116802783 0.0
149 2 15.267837362946985 6.828139999844925 0.0 -0.05708199977643448 -0.07304649454536633 0.0
150 2 12.897562658924187 1.357342231111486 0.0 -0.1211922022686825 0.04331314594627174 0.0
151 2 15.964667639916664 18.648998502891736 0.0 0.10799662712342403 -0.028244648514088536 0.0
152 1 1.2752949911327638 18.514812442394717 0.0 0.0020284491628449557 0.05162102227918045 0.0
153 2 2.109697450777025 9.55333477200734 0.0 0.04306372456634222 -0.038475109049848605 0.0
154 2 11.98501522241605 5.604359884718474 0.0 -0.04368655153155305 0.07505435868049604 0.0
155 1 17.952388407459118 1.4962653930317957 0.0 -0.08398983863175294 0.03644127181866728 0.0
156 1 1.089211306975986 11.710580287587746 0.0 0.12224474205338681 0.05119605371227175 0.0
157 2 15.068738844256602 1.0930913202603825 0.0 0.012967666151534146 0.06516657228236505 0.0
158 2 7.471830468182054 19.49164463583452 0.0 -0.0781786950979017 0.073853152494235 0.0
159 1 19.63066817661269 7.707476797578131 0.0 -0.04182896910760947 -0.02551759406228219 0.0
160 1 6.140719590643985 6.529080283445748 0.0 -0.016144763280711245 -0.09717311598664644 0.0
161 2 4.0284671322261945 10.423851295954972 0.0 0.029409579274694588 -0.07620569800763884 0.0
162 1 0.9567442821728208 17.930526111944637 0.0 -0.21973099694263593 -0.010914969202850632 0.0
163 2 13.241951155877135 15.82409342046749 0.0 0.0534379738332733 -0.042986578346059706 0.0
164 1 5.426671582124116 8.81891501637324 0.0 0.10795472311271667 0.08174103544465788 0.0
165 2 6.105029852427548 7.945369848275016 0.0 -0.011753864298663388 0.012327090181420326 0.0
166 1 18.314210670885405 0.9326234724156458 0.0 0.101453649644154 0.01501663805084848 0.0
167 2 9.537939911514924 5.3309084240753375 0.0 0.04875712753012277 0.10142006547170077 0.0
168 1 6.627222844880687 6.989324334957969 0.0 0.015359469644189829 -0.05736824727461872 0.0
169 1 2.697266359309529 13.063684818943258 0.0 0.15402737536890249 -0.1640108063047824 0.0
170 1 18.711608642327246 9.89886607928723 0.0 0.0843969091921391 -0.04435476816753392 0.0
171 1 15.65970676626468 13.900095257471426 0.0 0.01791468649226788 0.026490324815605686 0.0
172 1 15.577822490256699 15.276846965144928 0.0 0.11282536144379768 0.013058637687579366 0.0
173 2 2.8384897883889737 5.961467667212461 0.0 -0.02344971095479007 -0.09780088335277794 0.0
174 1 15.25388057629025 17.154767618874498 0.0 0.12410044088717534 0.00038211394304660777 0.0
175 2 12.637312387798454 18.573656028517696 0.0 -0.06914627274735309 0.023432567025228907 0.0
176 2 3.6396570838421978 18.452431491955885 0.0 -0.019359439312094936 0.06940638720305009 0.0
177 1 12.642534435823688 16.82644238949882 0.0 0.10668091104485654 -0.014095957161189693 0.0
178 1 15.39440451289822 15.954618458876325 0.0 -0.10848843903838808 0.022080038981057388 0.0
179 2 18.00202454333465 12.207564451064973 0.0 -0.03159790432087584 -0.06317505172443516 0.0
180 2 17.11435901351794 19.099040951620204 0.0 0.01180347201582132 0.017734989632421656 0.0
181 1 9.046914747310828 17.012768692859726 0.0 0.057388853901445894 -0.057897140183491416 0.0
182 2 10.744984618312305 1.7279981469328456 0.0 0.09005031274469097 0.03937564232489562 0.0
183 1 13.657980897889203 19.27888406181155 0.0 0.10279741527059547 0.16620382018275112 0.0
184 1 19.16491361098008 10.419789812608716 0.0 -0.056913710027306684 -0.1333427456049112 0.0
185 1 8.252964947019914 13.759694063915548 0.0 0.11090530381138307 -0.12145426245944725 0.0
186 1 1.6692789747457404 2.6452844135258284 0.0 0.0673396358949376 0.022310749818010272 0.0
187 1 14.3523211245279 18.74051443904192 0.0 0.02141764170411672 -0.03703637600436437 0.0
188 1 19.20831538450855 11.091878944366403 0.0 0.07995165182166972 -0.06214963961241351 0.0
189 2 12.369923722604891 12.494648224878887 0.0 -0.007468610844609126 0.07466163808722114 0.0
190 1 6.0194940067975145 18.170393778815985 0.0 -0.029291572873243646 -0.09844595531882862 0.0
191 2 11.684242191243788 0.8639736836909411 0.0 0.061744766673338385 0.11486960926120188 0.0
192 2 16.24978533831651 1.3792403465231318 0.0 0.05047396692574078 0.07123208516655202 0.0
193 1 5.464312550869969 6.310945631726405 0.0 -0.035675427034761516 -0.1577516806832273 0.0
194 1 1.087061884060947 9.909762220107389 0.0 0.040958768295617384 -0.10308740816447691 0.0
195 2 1.7230407869827618 6.680274381665039 0.0 0.03082010214114616 0.07215043353891881 0.0
196 1 0.9301929567021173 13.614785968414768 0.0 0.03418201014203574 0.07833853861958402 0.0
197 1 11.127704463805006 15.263683536145342 0.0 0.012336262616747003 -0.010450206855240623 0.0
198 2 14.83601117271366 12.829704722615505 0.0 0.03853826223254961 0.08321745886974703 0.0
199 2 12.16855855223854 14.935236493518802 0.0 0.0832168373167097 -0.010512105165402826 0.0
200 1 18.768179972022747 16.451157412577633 0.0 0.015137165792005617 -0.04574937808707904 0.0
201 2 3.830134557133609 0.026122291374973624 0.0 -0.12252482917555407 -0.013308279171243869 0.0
202 2 14.718383594744282 11.559202379094558 0.0 -0.0880455634932696 0.0023797578626571936 0.0
203 2 12.968388436468828 6.425214905220796 0.0 0.04724176356472622 0.006638259627801879 0.0
204 1 2.901128258673037 4.77453772661939 0.0 -0.019774069373895725 0.06862873755785694 0.0
205 2 14.393160503226413 16.46348655496351 0.0 0.017868526353917474 -0.013093783160882565 0.0
206 1 8.673875960989635 13.212810757103684 0.0 0.08191511918630669 0.011276673478668217 0.0
207 1 3.157429209029333 12.575953962669907 0.0 -0.014893301657677967 0.06302754305494603 0.0
208 2 6.35155156132268 9.500237085816892 0.0 0.023069716274745224 -0.03338722981644593 0.0
209 1 17.23620419419475 7.0192058044526755 0.0 0.04824776951930381 -0.25731253796831777 0.0
210 1 4.319173043674857 12.038140429708829 0.0 -0.08236335060182357 0.08028103245815689 0.0
211 1 17.469330315908067 9.27077853987665 0.0 0.04591993452001572 -0.004670669814366525 0.0
212 1 6.094348850089638 0.7012321869256077 0.0 -0.06342497747859717 -0.03483537895512268 0.0
213 2 4.488256688044431 17.494567826814755 0.0 0.022178504877729592 0.015664232354217763 0.0
214 1 18.269127035576414 16.922792671842885 0.0 0.0824572408149807 -0.03366671304836318 0.0
215 1 10.261931511226566 13.726994732309908 0.0 -0.1013352576029545 -0.08332707735683945 0.0
216 1 14.332728919559193 19.38854515400404 0.0 -0.004840191341621711 -0.11173452669805971 0.0
217 1 8.357685524457544 6.408749834650507 0.0 -0.06229626827296749 0.06953741719158543 0.0
218 1 18.92641752727872 11.695104372415683 0.0 0.0037428366911795526 0.054574762411567015 0.0
219 1 10.122614944321288 12.586762116650902 0.0 0.049673047557810074 -0.07629398354883436 0.0
220 1 12.953456979978359 4.258982853005042 0.0 -0.11736927290323092 -0.01917880068445279 0.0
221 2 13.631149341591183 13.279881520293374 0.0 -0.07578745185479939 -0.025221116880117543 0.0
222 2 7.2430276781888745 2.8536355805012117 0.0 -0.012386877820398243 -0.06309297374338595 0.0
223 1 3.319486377025195 1.0154506946112947 0.0 0.1220587046437231 -0.009317623758920982 0.0
224 1 1.6022784655333266 19.094148718905267 0.0 0.028270926856225998 0.014278346744862683 0.0
225 1 8.182534474061677 8.17919518658571 0.0 -0.031995377361069235 0.024888703519286987 0.0
226 1 15.899139858295754 13.260533217447204 0.0 -0.02880638433750794 0.04001898530712355 0.0
227 1 15.513560556548102 14.591951482941239 0.0 0.028964785421777328 -0.02492597089299903 0.0
228 1 0.26794942455777504 16.838677604985826 0.0 -0.013929661934602936 0.0289710293480189 0.0
229 2 16.122205651639906 4.915684665030864 0.0 -0.04417957976626597 0.07855248539851935 0.0
230 1 3.500916833383593 5.010259953167723 0.0 0.16752793599496407 -0.06634109336177331 0.0
231 1 15.247925653150544 17.828724156883876 0.0 0.06619865804934486 -0.050919791433939335 0.0
232 2 15.966646801848059 0.1213678356836951 0.0 -0.10281238893846888 0.019933708954119875 0.0
233 2 7.147488558186629 8.535032719359368 0.0 0.0006202789901723007 -0.009701297003977871 0.0
234 1 5.560558005963787 1.1225577144500227 0.0 -0.005279298878251115 -0.1387381064761661 0.0
235 1 19.757304376627907 8.381245366173069 0.0 -0.12746014869242384 0.06824588383756432 0.0
236 1 3.8327155611347523 12.488587827335987 0.0 -0.034578047511895534 -0.05827394526866193 0.0
237 2 10.387228569449503 18.75023894996555 0.0 0.01596689461289964 0.005651861139619702 0.0
238 2 16.50473966183429 15.865750436094597 0.0 0.020110286480139985 0.04752667558685847 0.0
239 1 10.553608693699331 13.128206424610664 0.0 -0.10746902782623378 -0.12849557425403044 0.0
240 1 4.9620390276456545 16.52173430970919 0.0 -0.09506866971537369 0.13523118897930556 0.0
241 1 17.881881499616433 7.18039929132901 0.0 -0.06572295046788208 0.12197966151573031 0.0
242 2 19.423087943272577 4.850246063577683 0.0 0.0023638420020846104 0.009435346097684691 0.0
243 1 3.6564830794507253 16.04458976093168 0.0 -0.11544077037860638 -0.05554723996628258 0.0
244 2 10.126303679695285 17.413541201310906 0.0 0.06821262030838918 -0.05169349515926838 0.0
245 2 0.5987629850289654 2.991323022723121 0.0 0.09643924049914743 -0.0638576081895088 0.0
246 2 14.094157259027758 1.8788746440284532 0.0 0.03617994601248254 -0.004968145973686184 0.0
247 1 3.132437974414574 9.844555786816143 0.0 0.005378671398263128 0.12201378515817007 0.0
248 2 5.131689429370768 0.11924456948965022 0.0 0.03821064679152729 -0.02670919493251762 0.0
249 2 10.340415610964556 8.954629980534518 0.0 0.05088078030259838 0.08576481227578225 0.0
250 2 9.418199603128027 11.018679943781354 0.0 -0.04058395141237418 0.03752540690869959 0.0
251 1 19.46266015935438 16.423628860980152 0.0 0.10260322868553723 0.061136623554303646 0.0
252 2 7.16959301538954 0.957399599082488 0.0 0.0365931093845762 -0.06669830560395826 0.0
253 1 0.6607317660715953 12.957323402177947 0.0 -0.017833274346315243 0.010954491681705786 0.0
254 1 14.868855803973519 0.02184182555952485 0.0 -0.011289647432822236 0.010746068932035559 0.0
255 1 16.122125855527287 14.864297590046654 0.0 0.005598891078692781 -0.06891355474601948 0.0
256 2 10.75633442187989 11.04120509332819 0.0 -0.05462303979629516 -0.014690298393671487 0.0
257 1 5.001783135851229 10.948816630122149 0.0 -0.06811694539469829 0.09315747436498452 0.0
258 2 1.370217098797187 16.880300406633616 0.0 -0.025193492974820327 -0.07921959089325088 0.0
259 2 6.565696209300289 17.164441038270905 0.0 -0.08284106151032901 0.05708583851471593 0.0
260 2 7.695930601043713 4.099174490522073 0.0 0.07117395288960357 -0.0254321346221703 0.0
261 2 19.283968455261103 12.74058106692514 0.0 0.010445331621337145 -0.07203928002898961 0.0
262 1 4.67703725670939 14.085551466703123 0.0 -0.06638006237839983 0.10541780656604538 0.0
263 2 7.951156784558989 17.291220843164925 0.0 -0.008240550683341044 -0.010194950307766402 0.0
264 2 3.6921324868367003 13.577858831321466 0.0 -0.1289432964494636 0.0003540503832317288 0.0
265 1 9.030776986483206 17.687181462564602 0.0 -0.07635147984026068 0.008718235383790065 0.0
266 2 17.962971456863173 3.2806000409087708 0.0 0.02531273154420269 -0.1063612588822551 0.0
267 2 5.795033139794036 13.883648569879094 0.0 0.01079825119124047 -0.0534877281248814 0.0
268 1 0.4948472970253221 14.155158217371 0.0 -0.09132998241802298 0.0643281272058941 0.0
269 2 8.360601881993205 0.6090940491392716 0.0 0.035392365356734554 -0.05892349139149209 0.0
270 2 11.575559076456452 9.107532613770255 0.0 -0.03274695899670245 0.040301696478969674 0.0
271 2 12.143039299703798 3.48720573788884 0.0 0.044700975471065406 -0.08569042343149139 0.0
272 1 7.490183295538084 12.685532906267728 0.0 0.009369296459961674 -0.0032219752298956296 0.0
273 2 0.04187665558370115 9.515778967729998 0.0 0.03443062527352101 0.07230322296757398 0.0
274 2 15.805740271985263 9.58889589747904 0.0 -0.0721234631229751 -0.04497772511772063 0.0
275 1 17.116840386848935 4.323917256551864 0.0 0.02788711423112638 -0.04332221014632147 0.0
276 1 13.303268476635852 5.4345846467102294 0.0 0.016410557686072035 -0.057530340901030166 0.0
277 1 19.250409507700116 3.194522255996341 0.0 0.013434356712319488 0.07009939985751802 0.0
278 2 15.281427625433933 8.262573091466837 0.0 0.007724769337187288 0.019482534055169785 0.0
279 1 4.493242939276813 11.394783232654257 0.0 -0.09789724390206922 -0.08546281018064349 0.0
280 2 11.539443165505986 19.35149771991092 0.0 0.02833312829646991 0.03782467113998549 0.0
281 2 2.5556298813430893 14.156787346758263 0.0 0.0039870657588140955 -0.07776645093763886 0.0
282 1 10.562167827268617 4.049875572844822 0.0 0.021564043803465896 -0.07235950499101113 0.0
283 2 2.1332585477120833 12.083458844397352 0.0 -0.008272870368193111 -0.16444330517860106 0.0
284 2 12.529514152427577 10.031910756844548 0.0 -0.03627952548648114 0.11116637860537298 0.0
285 2 8.276739714892997 5.3213352095632755 0.0 0.040181182962340106 -0.008111092839579824 0.0
286 2 19.12336554720112 14.095966790114677 0.0 0.009202314607651842 -0.049529082696059074 0.0
287 1 5.366648371227869 4.0468598422905595 0.0 0.017682604359534566 -0.043254830411671066 0.0
288 1 12.39032506615422 17.487280424392885 0.0 0.04411421564576905 -0.031017502562563238 0.0
289 1 10.473174734616387 15.036862270939206 0.0 0.034253907067605394 -0.1531033903755331 0.0
290 1 9.464170716502347 15.781836693979963 0.0 -0.007731482506544565 0.06875972580152852 0.0
291 1 16.28679591371654 16.970977581034994 0.0 0.02141414425950347 0.013080141545340781 0.0
292 2 10.869927285394857 3.0028776713269556 0.0 0.10509964643649786 0.02989300850236341 0.0
293 1 3.700596582481893 2.807074785330126 0.0 -0.0017970865451451678 -0.05009578833114864 0.0
294 1 11.451035466378325 10.20715331749371 0.0 0.0355083011127257 -0.0467662807643917 0.0
295 1 9.162100315807892 1.3586252354029287 0.0 0.05311386702571985 0.06427115799264718 0.0
296 1 18.034507404697223 17.64402972558873 0.0 -0.042736868485810924 -0.020441777702194654 0.0
297 1 12.352711174101843 4.551017269948969 0.0 -0.02561420708547399 -0.12034055889420872 0.0
298 1 11.46577881810928 14.068134848948105 0.0 -0.08894288411312098 0.003975705615561685 0.0
299 2 11.795587857711311 6.938642529440809 0.0 0.0018369240399493138 -0.03667762269773629 0.0
300 2 6.100125292494658 10.772340638061415 0.0 0.03976472419699721 0.10130323944374832 0.0
301 2 18.13559360768379 10.84890457772035 0.0 -0.037341862868713355 0.05491925231239251 0.0
302 2 18.78550610567797 2.2037631117873575 0.0 0.06563327020973074 -0.023667778211915874 0.0
303 2 7.164594095634153 13.798377151601693 0.0 -0.018111444681711046 -0.0027562585539159658 0.0
304 2 2.8041761646500087 7.4601327395210415 0.0 -0.0635600812378339 0.00964211512994192 0.0
305 2 0.6328680094742819 15.807799314261842 0.0 -0.05969318840675007 -0.004921175653119988 0.0
306 2 10.48668962651927 0.3277359533648929 0.0 -0.02379114320916971 0.01859488692084488 0.0
307 2 1.8827856288387295 5.096665167746455 0.0 -0.03776499231714988 0.08490962042925146 0.0
308 1 9.698492376987542 6.499194157125026 0.0 -0.004803112912067502 -0.029818785529214416 0.0
309 2 3.0734982653285705 8.771240227509653 0.0 0.053634084770493494 0.06387811312227011 0.0
310 1 14.928111857762087 18.42093223020312 0.0 -0.04429717446302501 0.12334702153663124 0.0
311 2 11.455689641677202 18.09766307314276 0.0 -0.05148286801420011 0.06454246536469001 0.0
312 1 9.809302522056502 15.181015004468254 0.0 -0.0906396859678248 0.01467007583883694 0.0
313 1 7.685445655742815 6.273296380518993 0.0 -0.005652158147012677 0.17832741461696677 0.0
314 2 14.588039497933144 14.03116323203523 0.0 -0.01207489594453946 0.070757188814152 0.0
315 2 13.569183462445404 12.05975620795067 0.0 -0.03086052370359781 -0.04472604742807853 0.0
316 1 1.285298848433279 1.4272597619003677 0.0 0.12083650737323763 -0.0010518237994242238 0.0
317 2 13.082133587135644 2.623797250713307 0.0 -0.06941082731366251 0.02884589915095696 0.0
318 2 8.32320789003949 18.526559973554164 0.0 0.09280460248103267 0.03495125085584052 0.0
319 1 16.80756541671716 9.139114406882392 0.0 -0.009851324881732612 0.059438245568333554 0.0
320 2 12.7932341025195 8.844806806574454 0.0 0.03261862416679823 -0.12348329061255468 0.0
321 1 12.164728623577085 16.06723751083428 0.0 0.07552457694806873 -0.06169383774269602 0.0
322 1 1.6195829661329826 17.928919730117926 0.0 0.006974899198042932 0.0949229117673028 0.0
323 1 6.8523672104751245 6.321653341677143 0.0 -0.09009626281020991 -0.022788039650459196 0.0