ITEM: TIMESTEP
0
ITEM: NUMBER OF ATOMS
400
ITEM: BOX BOUNDS xy xz yz pp pp pp
0.0 19.7609 0.0
0.0 19.7609 0.0
0.0 10.0 0.0
ITEM: ATOMS id type x y z vx vy vz
1 1 10.140698956016093 10.368954248686011 0.0 0.1176271937403717 -0.018332668505023977 0.0
2 2 8.500583055340838 9.065101204862506 0.0 -0.058567781633571375 -0.06159400475486358 0.0
3 1 11.467152135265495 15.21396408622996 0.0 -0.06259104459918914 -0.11001747192112207 0.0
4 1 4.9394342009527135 10.228946632562288 0.0 -0.12726927694630089 0.026075727230546557 0.0
5 1 12.260165470053181 7.048188927815919 0.0 -0.11138401959088884 0.017267184651747557 0.0
6 2 4.063925160849482 8.080816044500587 0.0 -0.04595750677172806 -0.009871808955314327 0.0
7 2 6.210683853981242 6.548578919400384 0.0 0.0031061504331516766 0.07341917805974021 0.0
8 1 7.941069633939879 6.07737839870791 0.0 0.072582370475598 0.06731401414622243 0.0
9 2 14.662387051836784 1.9598803882913491 0.0 -0.0754538615844558 0.11043021227820059 0.0
10 1 4.242870102278222 14.278026631443135 0.0 0.005219741332357286 -0.1841252736188043 0.0
11 2 1.3909587286532135 5.619327183381676 0.0 -0.01936490390493494 0.02317869130485513 0.0
12 1 13.644255309472763 16.868066508625887 0.0 -0.040574247926653054 -0.09163717272590288 0.0
13 2 16.14248346282445 8.165651808918485 0.0 -0.02769988080902006 0.0185881705814451 0.0
14 2 13.602011970212546 1.0879675249151208 0.0 -0.09690461710716258 -0.04832586239908489 0.0
15 2 7.734469607775227 1.1442602135444457 0.0 -0.004005572118665158 -0.0828506763825143 0.0
16 1 18.153609325968606 14.724050129728107 0.0 -0.098901946148767 -0.0003714145881468576 0.0
17 1 3.7995064153555114 12.32980692890661 0.0 0.0046757249413588095 0.08534195062897423 0.0
18 2 17.032895338814587 3.222683872929854 0.0 -0.06316000017391693 0.0730494391675858 0.0
19 1 17.735193454348572 19.303718941051198 0.0 0.10300999151884058 0.06967295258924565 0.0
20 1 11.760454952999623 19.198877715459517 0.0 -0.04674698991791388 -0.03819702009912996 0.0
21 1 1.4849859717298157 13.27543678722767 0.0 -0.04707239699235924 -0.01726025382243246 0.0
22 2 16.990847364350365 14.818660371647892 0.0 -0.06631471724343535 0.0735565220299326 0.0
23 1 5.912273992819236 2.657496209478982 0.0 -0.03679657213165578 -0.0576223959092966 0.0
24 1 15.932833709556583 14.452695360574793 0.0 0.027665827572696842 -0.05331823778963789 0.0
25 1 11.006966173058695 4.534729368038507 0.0 -0.055723016763772885 0.03299645159776669 0.0
26 1 8.287161594679267 15.20920578788209 0.0 -0.010785762343785138 0.0652366745706966 0.0
27 1 7.384481608519441 9.323234529067127 0.0 0.08323779894592129 -0.160300812254389 0.0
28 1 1.06665328378566 12.041585064033784 0.0 -0.06542189985487437 -0.11692607995270597 0.0
29 2 15.395835712446441 11.401051552084093 0.0 0.04440689485655791 -0.04596119626491671 0.0
30 1 14.10632837213752 17.329470078067107 0.0 0.02094834567701204 -0.01229613634244991 0.0
31 1 12.140088252124633 5.034995460533218 0.0 0.1992480999700906 -0.12159997447206021 0.0
32 2 8.817853252695688 0.44873881392712045 0.0 0.006316448451865261 0.0908842731707701 0.0
33 1 18.009446274559465 3.7333001773676733 0.0 0.0032077554216736275 -0.008017362404899548 0.0
34 1 11.793369623285345 12.546959644605042 0.0 -0.10671135766593301 0.03769007952725507 0.0
35 1 1.328338950811175 17.101889397754054 0.0 0.01984423308520005 -0.023341335838253784 0.0
36 2 14.587340355312238 15.533975057989275 0.0 -0.02232101409692954 -0.022019696033928563 0.0
37 1 18.700924532130326 5.325553410590582 0.0 0.17797984308352144 -0.02743063044375866 0.0
38 2 7.236793692761035 15.59901854435157 0.0 -0.024907342335306358 -0.03625102308884159 0.0
39 2 3.3263432466115685 19.5069674805314 0.0 0.0661230370694978 0.08846840785135908 0.0
40 1 5.868446745123848 11.704125806600313 0.0 0.0240791904397172 0.026002711928664025 0.0
41 2 9.450832550972617 17.515551785680383 0.0 -0.05236398249872956 0.08809173702246081 0.0
42 1 2.9828428903097777 11.58127661080707 0.0 -0.01989883189879192 -0.08526791767362471 0.0
43 1 10.115329129006787 1.6097495180103234 0.0 -0.042858971534030656 -0.01762178056480877 0.0
44 2 4.5652194998281 1.9571889309335035 0.0 -0.005894191452764917 0.01887619248955515 0.0
45 1 17.92655003946666 0.19541999489996945 0.0 -0.07075604024754943 -0.01878686548271587 0.0
46 1 13.656628568470861 6.056724502202558 0.0 -0.034981492555108344 0.04729556824771875 0.0
47 2 12.331629059008185 1.3831337783205793 0.0 0.022450214497360125 -0.02884490153374283 0.0
48 2 16.445252015004392 12.105675844306251 0.0 0.03806987043738379 -0.010825025259698693 0.0
49 1 9.07124145846051 2.1429464681605994 0.0 -0.05650502223799481 -0.005686071263918078 0.0
50 2 4.801247184473524 16.364757039292627 0.0 0.00041413515060645644 0.02935424679062096 0.0
51 1 10.774359237679713 10.627804149559966 0.0 0.05933544478941296 -0.0009126795131819479 0.0
52 2 1.9614990271133987 14.303088379427347 0.0 0.028112811578890503 -0.05674554907647865 0.0
53 2 2.8969952481694183 4.678076583691582 0.0 -0.027140215919130017 -0.04054419540063377 0.0
54 1 4.104785910206483 18.67425845587605 0.0 -0.1553155844163712 -0.1014244722308185 0.0
55 1 17.83894724985143 7.636765890717099 0.0 -0.025134976871138318 -0.05587652041256512 0.0
56 1 18.379314995016884 8.07633519009559 0.0 0.014499893934942325 0.0491214430134175 0.0
57 1 3.3768263318451943 12.826629667326456 0.0 0.13299218216468445 0.04427483875655977 0.0
58 2 1.8569821696546227 6.804574139507866 0.0 0.011152377045551075 -0.029479998523832894 0.0
59 2 8.207846403364671 17.57044126528089 0.0 -0.11438450950490427 0.052931309088064545 0.0
60 1 15.005007175724586 16.560159773756173 0.0 0.06756746061478922 0.026954210499143316 0.0
61 2 10.36319970283015 5.4349172878357885 0.0 -0.04761212118458546 0.03043344848579788 0.0
62 1 18.731410611192857 9.315153032109272 0.0 0.06327764371915512 -0.0406623657078244 0.0
63 1 17.05447175598478 19.43780657683296 0.0 0.04773476129143501 -0.02385437279999474 0.0
64 2 15.040200604556041 19.119256579844045 0.0 0.02592892923371219 0.0018976130203103517 0.0
65 1 9.634692486086772 15.182667155464557 0.0 0.09685861584200181 -0.09277362695886057 0.0
66 2 4.778866433725807 11.865670220875467 0.0 0.06930454472858458 0.07261274635680046 0.0
67 1 8.95389478905651 2.8127008516420413 0.0 -0.06866217931943089 -0.11004071031702453 0.0
68 2 13.24072075422656 15.241805479893744 0.0 -0.034800032807969505 -0.05044779020211335 0.0
69 2 16.827446330001177 1.9955871874876832 0.0 0.032702628199822996 0.053052144899154365 0.0
70 1 1.4086966425502983 1.5245256744439337 0.0 -0.16756642352093234 -0.0258046645810477 0.0
71 1 11.45279485607563 13.926749706631693 0.0 0.12886323616538137 -0.15042029623604194 0.0
72 1 12.143981263684754 15.25743845427229 0.0 -0.1145617100079306 -0.13229306166384874 0.0
73 1 7.952915882845071 14.625769518317007 0.0 -0.022478283672528535 -0.05957651824985537 0.0
74 1 9.263117168086804 3.4048705856246975 0.0 -0.08149919934191051 0.025428787330980394 0.0
75 2 2.8476943543831483 3.3956029398888767 0.0 0.0662898790802182 0.083713292935797 0.0
76 1 0.25378553732024717 5.352801121820507 0.0 -0.053902160833115595 0.028965176218249587 0.0
77 1 1.567390356039924 16.48579915386366 0.0 -0.048667461051462385 0.024075344232455196 0.0
78 2 2.9040658208562316 7.494957489932547 0.0 -0.07342575520534286 0.0005196741526914675 0.0
79 1 17.587201330070442 6.163123214473484 0.0 -0.11074459141680804 0.09576231154184799 0.0
80 2 3.2131018167330585 13.859474542691768 0.0 -0.020556782995778573 0.047309223396138585 0.0
81 1 17.81467416622096 2.4607686253678565 0.0 -0.1288891585144689 0.036976169503997236 0.0
82 2 16.539679331196336 5.7265674683909475 0.0 -0.03985998576927502 0.022869531105706584 0.0
83 1 5.27237905474512 2.7524563491423066 0.0 0.027175764748222815 -0.07236070578376015 0.0
84 2 12.54270153513082 14.09743489495443 0.0 0.04385870191171713 -0.027791463572958162 0.0
85 1 2.8916577365931118 6.3805750867223 0.0 0.12386046020202517 0.08430451165616805 0.0
86 1 18.575701661267228 0.45335811071833615 0.0 0.00202530426578408 0.01125555567516145 0.0
87 1 3.805424874923439 3.951847107089712 0.0 -0.006276042783540803 -0.12092254166190997 0.0
88 2 4.5954949484380565 19.64274761988818 0.0 0.012426148954636795 0.03169479657441766 0.0
89 1 18.2307658931155 6.380975834612176 0.0 -0.05861757034718565 -0.016802841866231513 0.0
90 2 16.060119732084456 16.854207018341327 0.0 0.006527730722190085 -0.02553725658766949 0.0
91 2 15.803852937481162 15.5470488703047 0.0 0.03305653982364435 0.05203234032075645 0.0
92 1 4.86555012205189 13.992263593107682 0.0 0.02128284890998135 -0.07378774742878112 0.0
93 1 8.371764688198473 10.178395032717997 0.0 0.0180414300442108 -0.0442328500524594 0.0
94 1 18.737525075431964 15.051946153938658 0.0 -0.09077703340656028 -0.010989979524053456 0.0
95 2 5.704088840262405 17.327031641461488 0.0 0.004970929789921392 0.09566752391523485 0.0
96 2 13.416021241744064 2.3133984594248487 0.0 -0.005383565880879182 -0.06698029344514396 0.0
97 1 9.44385005438635 1.4933650559882614 0.0 -0.01641021891943511 0.006680684143907695 0.0
98 2 6.607275143363454 18.339552157661064 0.0 0.005032632603796884 0.06336779247021532 0.0
99 1 11.65243822219369 6.6279788632922685 0.0 0.11606161629270818 -0.002336987655102527 0.0
100 1 12.327576200550697 2.4691057579904787 0.0 -0.0063499046726027365 -0.014876729110350977 0.0
101 1 4.322473440598924 13.602808178694794 0.0 -0.022555255893567754 -0.04842614638425827 0.0
102 1 6.450151133279239 11.346076976423374 0.0 0.07479223489993679 0.04727121334043495 0.0
103 1 8.641031778170314 14.640948909696487 0.0 0.007654991511755912 -0.03019540124382592 0.0
104 2 6.229890580620539 14.88035461164591 0.0 -0.05856039058142054 0.09623712581077712 0.0
105 1 12.248916218836358 13.0346322312304 0.0 0.08018525204270402 -0.18488376420926297 0.0
106 1 3.8383286533583933 14.84457611836051 0.0 0.08585415978720282 0.04818743775995569 0.0
107 1 4.657095863022965 3.0582406376968025 0.0 -0.08453739377126784 0.00484570793379507 0.0
108 2 5.9041441680601165 19.584821159628998 0.0 -0.046131945948248564 0.01973125621261561 0.0
109 1 12.596982612001682 3.077053543517126 0.0 -0.054054899054076365 -0.0714581677294685 0.0
110 2 13.882036846506185 9.78247825589195 0.0 0.014495583582293114 -0.006150122716718063 0.0
111 1 3.990309819972638 10.463667761303832 0.0 -0.04669754401148964 -0.09404007063989014 0.0
112 1 11.521567861884682 16.456510118932535 0.0 -0.021052573495163728 -0.028488490308068406 0.0
113 1 17.99083837363949 12.586669192321208 0.0 -0.03237238608952014 -0.005324843167673111 0.0
114 1 6.979714401638231 1.9684670927028585 0.0 0.02444526077780732 -0.04348762552483677 0.0
115 1 0.8082209233633783 6.552725524396497 0.0 0.015813960258920387 -0.02177539156245329 0.0
116 2 3.041880092295162 9.965476187534605 0.0 0.024221120925167407 0.04852750345757585 0.0
117 2 8.990352636053506 5.706573996444457 0.0 -0.04096183114717053 0.024582002825589415 0.0
118 1 13.009290631119406 4.2925835921116855 0.0 0.03690709612798033 -0.14154024776656784 0.0
119 1 10.944068259067832 13.511931490956004 0.0 -0.13428678815406306 0.06208556381030843 0.0
120 2 6.7617788122759785 10.332362501909296 0.0 0.021188857255886515 0.07794328506085521 0.0
121 2 15.646015288176583 4.846275311279175 0.0 0.06478918270226708 0.02660152982602213 0.0
122 1 9.18619313904064 6.763039629658376 0.0 0.14340556998851497 -0.23406725440387513 0.0
123 2 19.33188480139327 4.44552586227444 0.0 0.03458119009830074 -0.022019712704937144 0.0
124 2 14.508691920390985 5.372346056506131 0.0 -0.029252477966447275 0.0556258144563187 0.0
125 2 0.8043300815742703 19.08805514180452 0.0 0.045375947996358516 0.02743634909612623 0.0
126 2 1.8245034331562693 8.160073627775898 0.0 -0.07587378869440052 0.05734769337945169 0.0
127 2 6.927968819894186 3.066346459477215 0.0 -0.016116608185989846 -0.04565876621606751 0.0
128 2 0.47721586904909463 16.396062487227386 0.0 0.04112310886763412 -0.07329860545936452 0.0
129 2 6.974538637175203 5.566641176904285 0.0 -0.06437456441275727 0.025186899251750428 0.0
130 1 9.629884066756405 9.151068061925551 0.0 -0.010188140942545236 -0.033895777191687244 0.0
131 1 18.518790586041654 12.141048278078872 0.0 0.008777228312958484 -0.017459397652454207 0.0
132 1 0.7704235290866988 17.45787630476862 0.0 0.010206330786292484 -0.032984768347688244 0.0
133 2 12.594589252920875 0.13684126512573772 0.0 0.06859430867309485 -0.0517519519299688 0.0
134 2 14.511961425640617 13.566197250269186 0.0 -0.08822735128816399 0.004964852139353286 0.0
135 2 10.703696020724204 12.47264245149623 0.0 0.047754305285016486 -0.03188050941807807 0.0
136 1 9.638953685342866 18.627582441893104 0.0 0.05626328595239343 -0.07043008522715766 0.0
137 2 15.033688471148245 10.16664859111511 0.0 -0.08633334149278486 0.11059460181958 0.0
138 1 3.9586907764671575 3.2016346264758733 0.0 0.07638514966919252 -0.009268086724024769 0.0
139 1 18.74359421703901 14.365045513085528 0.0 0.008472844359765756 0.04567912102290661 0.0
140 2 14.041711369112528 18.414482080227025 0.0 0.009084747733235263 0.005162560569404351 0.0
141 2 11.773367699202742 10.166305117117556 0.0 0.0468640355249049 0.009725846683240249 0.0
142 2 2.187739887858285 2.2947387397718675 0.0 -0.019892005578833055 0.015367748555723666 0.0
143 1 18.48576888178145 9.959058797416843 0.0 0.06061571727667048 -0.08430126662329918 0.0
144 1 16.841223658993204 0.8903539397204467 0.0 -0.11267228347885112 -0.03372889952661957 0.0
145 1 11.595150113942159 13.242135814068932 0.0 -0.20669964537768717 -0.10351058598359862 0.0
146 2 18.150491676720257 17.024365865885585 0.0 0.020128597258020173 0.04472842613664469 0.0
147 2 16.060215494648197 0.11357953256023777 0.0 -0.036486765177047374 0.10186552842613361 0.0
148 2 5.206588742672468 8.596602201396177 0.0 0.005657982872645985 -0.10485709947249063 0.0
149 2 10.592042113609596 15.809448315330942 0.0 0.004499222892610265 0.011827923169246352 0.0
150 2 19.384341478978772 8.441873357913174 0.0 0.007968123294006995 0.08837719847257434 0.0
151 2 0.352832287047217 12.864828863382757 0.0 -0.0027869310933666927 0.004745929966580807 0.0
152 1 2.7097125564527555 12.7508016877087 0.0 0.03646507099364908 0.07302658694944154 0.0
153 2 19.380891160689554 17.41386595312623 0.0 -0.04216918291495328 -0.05214839049454879 0.0
154 2 2.2022380806498623 10.866167752636922 0.0 -0.00030465109282658693 0.08534918300976677 0.0
155 1 18.234039502277533 4.366757053960271 0.0 -0.09522567192318111 0.04444525026515698 0.0
156 1 6.323729734023006 2.1242132171193835 0.0 0.0017008236818387924 0.05872087890689762 0.0
157 2 7.867029186668358 18.754925847539567 0.0 0.0909066839878506 0.0936637944406644 0.0
158 2 11.840326806718863 17.5184140442682 0.0 0.04037375111226977 0.04573774563682048 0.0
159 1 8.912652114299435 19.135086660166394 0.0 0.07819160585344911 -0.06384330761482879 0.0
160 1 5.876302931378523 13.202276934594984 0.0 0.09427775367810257 -0.08449323708140549 0.0
161 2 4.29469535378953 17.56849498624962 0.0 0.08485948019775122 0.05602117849967251 0.0
162 1 10.979837689648976 16.852698810411834 0.0 0.029892254792010815 0.03734896095615529 0.0
163 2 1.682226659023308 4.393576731954179 0.0 -0.06985781849996144 -0.007173494326845382 0.0
164 1 3.12122126503032 12.21592631661603 0.0 0.10206052821556863 -0.0151687734820558 0.0
165 2 17.868427585476507 1.3119845373921422 0.0 -0.04103439785876941 -0.020005300181483672 0.0
166 1 17.125607855222995 16.591296917258074 0.0 -0.04992097830414226 -0.08652386352582887 0.0
167 2 7.019753580414758 16.966623585134325 0.0 0.03882746084096012 -0.019443373451626025 0.0
168 1 1.761236237316123 11.955527145676827 0.0 -0.04011535016379142 -0.08337147746809874 0.0
169 1 14.254162590773273 3.7048431184942263 0.0 0.13517866664939165 -0.07104548173750001 0.0
170 1 9.359649483072042 14.563404705351498 0.0 -0.02097196554556118 0.17275853814477565 0.0
171 1 11.452234075711093 5.02623164095904 0.0 -0.04626349259675686 0.06480764101263806 0.0
172 1 10.063293512230212 8.627650115558584 0.0 0.1515491409696487 0.030467942620396225 0.0
173 2 0.20157292476181396 11.350480007321664 0.0 0.028005765462733784 0.017856562599022387 0.0
174 1 13.605218288881222 14.182876561526983 0.0 0.08655075267758497 0.05577150026169015 0.0
175 2 14.123009531405057 11.028623687665497 0.0 0.05868761363744222 0.047749568509085044 0.0
176 2 8.69978970098665 11.231890204285728 0.0 0.023048181677058667 -0.025065756711967327 0.0
177 1 7.5631736701665115 11.210629976042943 0.0 -0.06145666857189236 0.04481970233682616 0.0
178 1 0.34667252688972355 6.02271598336834 0.0 -0.051808760775317264 -0.04788525575869979 0.0
179 2 17.025778629254166 9.062916652496348 0.0 0.02937717987954887 -0.006187774494902572 0.0
180 2 14.896854287879863 7.969950571094418 0.0 -0.039592418607434184 0.027797751595658424 0.0
181 1 13.409352571529192 5.372203696720536 0.0 0.029617906491920736 -0.08174812038358067 0.0
182 2 10.054357376156482 0.5322623915822715 0.0 -0.09677400967915516 -0.04632163077811262 0.0
183 1 10.649689100920751 2.016837276134311 0.0 -0.024955487018364295 0.0038797616516055063 0.0
184 1 8.973391861178989 15.244309623403293 0.0 0.020235178419007745 -0.048968737785066725 0.0
185 1 2.067072464005809 12.569183634428306 0.0 -0.0033216619191587297 0.09097406271637444 0.0
186 1 9.731242311502099 2.1400167807360053 0.0 -0.1579940608897727 0.04639422068533197 0.0
187 1 18.141319819146464 3.0660675088266323 0.0 0.0903007341951158 0.003793521381587784 0.0
188 1 19.202031342845522 12.127677520839889 0.0 0.08009083664881128 -0.07078774526914648 0.0
189 2 16.777890774987195 6.977560487135589 0.0 -0.008420993913134653 0.061746932784267586 0.0
190 1 19.465620066578644 6.192462772225456 0.0 -0.11090962409933387 -0.07297650297246067 0.0
191 2 5.218658005289126 18.513298888980664 0.0 -0.06053085785392004 -0.0019302991406643258 0.0
192 2 2.4389260688921754 17.156957806332734 0.0 -0.01365769814005183 -0.010111293034234416 0.0
193 1 6.468853517073172 12.003560383727626 0.0 -0.006330145475357767 -0.01677841034850577 0.0
194 1 5.23335410111451 13.437689959141585 0.0 0.12728594971245488 -0.09953961242186897 0.0
195 2 11.569005846873772 11.447022857660563 0.0 -0.1191784796727902 0.040802369544619625 0.0
196 1 5.232867641534515 10.844863761868798 0.0 -0.0375457910054343 -0.01756472957778605 0.0
197 1 16.556510808008927 11.010409326810166 0.0 -0.12346749237095327 -0.00477590525153578 0.0
198 2 5.22841335325283 0.9521650150341235 0.0 0.08320636258741124 -0.0182698095094908 0.0
199 2 6.2973572946612935 7.904917959535218 0.0 -0.022336152479212338 -0.09115693563091971 0.0
200 1 10.31929514453943 16.87195244362657 0.0 0.10310156464081022 0.07226823935475499 0.0
201 2 17.109235518816032 4.465367363990728 0.0 0.02320523677631581 0.09651280797675828 0.0
202 2 18.907323669082867 13.201959857892184 0.0 0.06590584617215485 0.04888823040457668 0.0
203 2 8.144299544513677 3.615237271994687 0.0 0.10477856144364953 -0.0058413915122596536 0.0
204 1 11.589601287299551 18.564350490551956 0.0 -0.22012004093938042 0.05734660241788422 0.0
205 2 3.955160362097953 6.83333133737648 0.0 -0.08811010196571546 -0.04118337088803453 0.0
206 1 19.383901111941082 14.16121094194214 0.0 0.07702759695294091 0.048979651484137826 0.0
207 1 8.676503038036039 13.389218461201809 0.0 -0.07376345950524588 0.014883340857139013 0.0
208 2 14.613443425812973 6.675589790986564 0.0 0.09547433174071342 -0.07066641641106275 0.0
209 1 14.864784949985555 3.398060225459155 0.0 -0.07423513230295502 0.0018713560198038433 0.0
210 1 9.017402785027882 10.037062233157146 0.0 0.02211936511186777 0.004588482684552917 0.0
211 1 5.659140729240074 2.0028743918635623 0.0 0.09800157768912598 -0.1005397207021079 0.0
212 1 8.003195882240624 13.361899938931122 0.0 0.01129228936046247 0.04788095295303623 0.0
213 2 1.654498979889698 18.146141966746566 0.0 -0.10149887311993878 -0.013513025362702628 0.0
214 1 7.28330944622081 14.514560086255115 0.0 -0.049999544735048355 -0.0216651250996607 0.0
215 1 1.2964025181726613 11.429234415118687 0.0 -0.00441080001960919 -0.06213827244767417 0.0
216 1 9.542689802499268 19.32397617092286 0.0 0.15253769630244207 0.06451762001271368 0.0
217 1 7.761145528769098 9.887564560910175 0.0 0.16258233168179217 -0.06586555708987202 0.0
218 1 7.803931819206544 7.107715415694737 0.0 0.027319166518576625 0.06894107136647705 0.0
219 1 2.9091953915187156 14.896170127960657 0.0 -0.018478922492108616 -0.020887802087917358 0.0
220 1 8.911016479528524 14.024433911598292 0.0 0.0012775624368868694 0.1442771075317677 0.0
221 2 12.740074722663197 9.35975218092289 0.0 -0.03413917344487593 -0.00790037496530885 0.0
222 2 15.13631994448199 17.690936817368986 0.0 -0.025504449149512894 0.02761155901898225 0.0
223 1 4.025417665410071 12.971259118995857 0.0 0.020898687948203497 0.014969115362193084 0.0
224 1 19.365877377916096 5.546653863363201 0.0 -0.07526559810283763 0.14785941565299993 0.0
225 1 4.0006518789342325 11.120827376071116 0.0 0.044420893673103805 -0.03427621280110084 0.0
226 1 17.78723836199104 8.31519629595842 0.0 -0.027627245034341438 0.06638942215298561 0.0
227 1 3.4075831436669772 15.354265537834127 0.0 -0.020441232321710284 -0.02180797876591293 0.0
228 1 14.133311235592293 14.57199190251888 0.0 -0.039206210231114126 0.10793751667206959 0.0
229 2 12.769157193845636 11.97258208246754 0.0 -0.0644364166580496 0.015181810912932059 0.0
230 1 5.64692675706892 10.279927800076232 0.0 -0.03349162153498677 -0.05272713808432823 0.0
231 1 15.75860013468838 6.504531817346228 0.0 0.05775244366124664 0.0873380604983195 0.0
232 2 15.45535130694474 12.797293318611331 0.0 -0.031405537857809876 0.0009983516554307307 0.0
233 2 2.9888183000134805 8.738541479134085 0.0 -0.0232823766267958 0.02420613297338102 0.0
234 1 2.4647619756801946 12.013176514581454 0.0 -0.03915854590247592 -0.23075794413352094 0.0
235 1 18.287817453119427 8.7704248711235 0.0 -0.021739147183789987 -0.1014340061430964 0.0
236 1 16.790582187247658 15.986312735058846 0.0 0.059726482130715616 -0.043810552650989196 0.0
237 2 1.0386808827347402 10.35652974631931 0.0 -0.04386385713530754 -0.07084200595642402 0.0
238 2 9.844544965086664 13.50787120054357 0.0 0.02294705654415252 -0.0010885811740327198 0.0
239 1 14.322716347333015 16.663078412989343 0.0 -0.05762914219793655 -0.11451351215809331 0.0
240 1 0.30464518978615196 13.983279392283317 0.0 0.1628896536572927 -0.1436659391556189 0.0
241 1 12.98024830926161 18.842173057883183 0.0 0.03293034834900102 -0.019035487406271694 0.0
242 2 10.652562324879915 17.92870118675077 0.0 -0.08440648388302427 0.09039347958442429 0.0
243 1 15.652456888261321 7.1702034972632465 0.0 0.0735757883847439 0.020119224723829824 0.0
244 2 19.586043947719762 10.022212061099866 0.0 0.024147208498804484 0.009566904709408007 0.0
245 2 4.2144512173538855 9.39478005855439 0.0 0.03868438410250043 0.009001186273060981 0.0
246 2 2.4011603224721596 0.9406665669061534 0.0 -0.0022053040540194664 0.015368572174934394 0.0
247 1 18.815866336866137 6.00238265943334 0.0 -0.08494563565902143 -0.09002461289828066 0.0
248 2 14.285105244240212 12.26898721393939 0.0 0.015801752201744197 0.03736704541508319 0.0
249 2 6.954623628630873 12.945547224004008 0.0 -0.09328256648539196 -0.029070418733431986 0.0
250 2 9.245786266150976 12.42473797447828 0.0 -0.023850104928028613 0.04487705033932673 0.0
251 1 0.16614175889362226 6.672650337869006 0.0 -0.05921620083882976 0.08121380302733189 0.0
252 2 2.447028312451556 15.872899473888136 0.0 0.022731299991984 0.07794351257878285 0.0
253 1 15.211181179471565 14.541360459462567 0.0 0.024753174260990524 -0.049258902797659605 0.0
254 1 9.610141729911295 2.8232471047520726 0.0 -0.018821684900801404 -0.09590248084847923 0.0
255 1 11.012200417619429 6.998213146965696 0.0 -0.0582288218534662 -0.054884540938818296 0.0
256 2 17.441137707354404 10.3159718057539 0.0 0.006359735728221946 -0.0014750168974624384 0.0
257 1 17.866698904397136 6.9518605074111735 0.0 0.018271288657336147 -0.03647718628422504 0.0
258 2 6.302755900895942 9.178939974513373 0.0 0.03104312486916395 -0.013593078167985946 0.0
259 2 13.019893485166481 17.743547879325835 0.0 0.0031774316253072145 -0.05757777571633083 0.0
260 2 19.63299916693843 0.2005306671339351 0.0 -0.0001721138786190901 -0.054024357732125695 0.0
261 2 16.206736066029663 9.962303812531022 0.0 -0.017434574773843737 -0.04514807755893898 0.0
262 1 17.254436168403107 18.809084677752953 0.0 -0.14178371239069087 0.07445807030435753 0.0
263 2 13.366531954868977 7.161297280209325 0.0 0.010977197445136816 0.010453453769810557 0.0
264 2 9.370329960068233 4.488410291822584 0.0 0.02084963557262792 0.042505330404994365 0.0
265 1 13.052866075964475 3.593633689489188 0.0 -0.02053268603705013 0.0946605906960657 0.0
266 2 0.24678820302736046 1.5097291485034507 0.0 0.047642542682154426 3.635809208615492e-5 0.0
267 2 12.895128582738336 10.670636824267795 0.0 0.06017129290131387 0.01671034782137732 0.0
268 1 11.642932722212041 7.286342248785372 0.0 -0.01105027421882966 0.0422476110673329 0.0
269 2 4.949886667329322 6.042733237646501 0.0 0.1272315407863817 -0.08275611429095585 0.0
270 2 19.354426772681748 18.732557675106698 0.0 -0.03944746096474281 0.10516400436457425 0.0
271 2 11.32125271921744 2.8771202968284615 0.0 0.11816535203618932 0.0009708331379185621 0.0
272 1 18.656138967844324 3.5266197530519467 0.0 -0.03317389698513888 -0.13892821637939975 0.0
273 2 19.039667451323577 16.127019526878147 0.0 -0.0341353519787923 -0.01180033270298793 0.0
274 2 10.525160402253757 14.555429607064966 0.0 0.0726829168285093 -0.08406849202636771 0.0
275 1 4.700186760883674 13.000221363473571 0.0 0.012285522974847722 -0.09409197615825952 0.0
276 1 3.340304561219851 11.00504266793716 0.0 -0.031931032195833424 0.13108394933352374 0.0
277 1 10.4826823653777 6.548479879522381 0.0 0.01650136575765561 0.042607182663999946 0.0
278 2 9.440979564785755 16.25338393232986 0.0 -0.0455722907887376 0.04285726958914001 0.0
279 1 18.09027302118539 5.029393616072455 0.0 0.06470596188448158 0.07284642472321234 0.0
280 2 12.647755286631204 16.415880168041745 0.0 -0.03620373398893138 0.04732141080291938 0.0
281 2 16.19578298221945 18.630620827050116 0.0 0.02284579758611129 -0.046388902576764375 0.0
282 1 2.5278000504892097 5.810774689300673 0.0 -0.01264067306065137 -0.10623344373411252 0.0
283 2 5.152324072773033 7.295773041752329 0.0 -0.07011409946158742 0.05770271957014231 0.0
284 2 18.199388012259618 18.307593168956174 0.0 0.14068495014855714 -0.07145449670021743 0.0
285 2 3.5402299139620705 16.516653356906602 0.0 0.00689787550740882 -0.029416600037597326 0.0
286 2 1.914647886730917 9.465074142349154 0.0 0.007853734575954998 -0.02995352815094469 0.0
287 1 7.824541208620803 10.576668755416994 0.0 0.03771847366186771 -0.0994211472392704 0.0
288 1 14.182399262328007 4.362846308056981 0.0 0.02968429460592966 0.05281151342205993 0.0
289 1 18.959222860557208 1.0599439795479073 0.0 -0.02464596327875499 -0.009231461729998601 0.0
290 1 7.051687716929961 11.658970892516006 0.0 0.009811981501615066 0.08138844682376335 0.0
291 1 17.341141218645365 12.705691148758296 0.0 0.09410351350698735 -0.03529028613535956 0.0
292 2 8.050317335126703 4.885282396006966 0.0 -0.013315178976006264 0.05868595827469351 0.0
293 1 5.8726854739120435 11.004107705017368 0.0 0.02400135969947101 0.024608360704177917 0.0
294 1 13.614162548787688 4.009979661893738 0.0 -0.04077262033817266 0.03871519108846083 0.0
295 1 11.305258889332064 1.7477981607658455 0.0 0.12671973668596145 0.10757989233149559 0.0
296 1 17.22586433560533 7.962621285575981 0.0 0.02053055480427519 -0.08143713608503934 0.0
297 1 7.123082546427302 7.161555366542133 0.0 -0.07923267812095143 0.22228942709291902 0.0
298 1 18.07008951957926 9.417584984961255 0.0 0.06946969843450757 0.00435805215729385 0.0
299 2 13.334763954834719 13.092875158186146 0.0 -0.0003858392507224377 -0.04429900061612653 0.0
300 2 17.789552417641744 13.71518197405747 0.0 -0.05628930714753961 0.007526015288207843 0.0
301 2 1.293630373300012 15.404574670678715 0.0 0.03695800766978269 -0.0919439322710506 0.0
302 2 3.8024933750236154 0.9461976429764328 0.0 -0.022061330751663142 0.040645639284862325 0.0
303 2 3.400862932823466 2.2427301179619477 0.0 0.0038894000424922943 0.0021935023361542415 0.0
304 2 5.814176898373459 5.093841831998603 0.0 0.06326635027904656 0.005673622090640473 0.0
305 2 17.563147446844496 11.574888927180009 0.0 0.05383436389439197 0.08012747150497497 0.0
306 2 16.549923219127137 13.516955750541372 0.0 0.13269441381811395 -0.04167212500625317 0.0
307 2 17.056335816641255 17.709176941539805 0.0 0.002624267842245073 -0.06214880632352061 0.0
308 1 15.454056974000952 5.917180615066832 0.0 0.051024222724176276 -0.05018549653017588 0.0
309 2 8.682888804157704 7.735688788338161 0.0 0.04276299202904337 -0.027249096065786255 0.0
310 1 9.426637263744826 8.497604822433807 0.0 0.1997621504931188 0.11635669435934151 0.0
311 2 3.048722512163926 18.257212568402487 0.0 -0.057148338726519955 -0.009331573838310498 0.0
312 1 0.8640615517303293 14.403420482851587 0.0 -0.042825929128590595 -0.06799199417791368 0.0
313 1 12.294465201384146 18.69513608012833 0.0 -0.06179309890027491 -0.11609281499571704 0.0
314 2 18.74443461995744 11.041177988075992 0.0 -0.08726540805174514 0.12473771067765307 0.0
315 2 13.725448582868802 8.503023721752584 0.0 -0.008677104089041062 -0.015672569984188894 0.0
316 1 11.733368172308388 15.817803759701293 0.0 -0.03284641942173297 -0.025971438929627687 0.0
317 2 8.237654381458295 16.30150405491435 0.0 -0.048329374171983436 0.08600673497528544 0.0
318 2 18.852058577330265 2.174196666148557 0.0 -0.03131739601626414 0.059416286152261764 0.0
319 1 6.196540928076996 13.792409142300462 0.0 0.06629679322988175 0.027335488791967805 0.0
320 2 1.1459826258097225 0.4978326826779069 0.0 -0.08575428072194488 0.026950091900118177 0.0
321 1 5.362290903619279 12.78009158181302 0.0 -0.12020345703592052 0.010074595261493551 0.0
322 1 14.301190629551002 2.996948600325033 0.0 0.05119284468279894 0.040704087324990694 0.0
323 1 13.753001946743256 16.22261433028164 0.0 0.010257594617186595 -0.11552823886272676 0.0