ITEM: TIMESTEP
0
ITEM: NUMBER OF ATOMS
400
ITEM: BOX BOUNDS xy xz yz pp pp pp
0.0 19.7609 0.0
0.0 19.7609 0.0
0.0 10.0 0.0
ITEM: ATOMS id type x y z vx vy vz
1 1 9.17584915983519 18.76893085805036 0.0 0.05702469838887272 -0.17175026248556782 0.0
2 2 4.339684786106651 9.170286616473437 0.0 -0.0963609089620512 -0.08201887809521209 0.0
3 1 11.570944581979944 14.804176908296721 0.0 0.03867671010398432 -0.03210584557198647 0.0
4 1 0.9734541586719583 6.1274986599331696 0.0 -0.10791509013542018 -0.09809068472956088 0.0
5 1 8.759128360611058 11.309778334454748 0.0 0.0905495835899537 -0.016080247253935784 0.0
6 2 3.554392333825591 14.88780481014648 0.0 0.00021687209274603512 -0.038545462237415035 0.0
7 2 7.79448792887948 15.560732011559859 0.0 -0.04912492141903118 0.05002361860353634 0.0
8 1 12.122750738055908 8.913269962464854 0.0 0.06512457118236281 -0.10259900803946631 0.0
9 2 19.639555951775982 6.136766669903664 0.0 0.051422970734236746 0.016073795598927177 0.0
10 1 16.41347019861515 12.099729649936787 0.0 0.053440380163960535 -0.05585071678185502 0.0
11 2 4.021836503506485 0.7276427060851698 0.0 -0.01832304026027273 0.0444339850831916 0.0
12 1 1.7002565975391901 13.589212970242274 0.0 0.01662009630293636 -0.013565238079422197 0.0
13 2 12.231421585995488 2.6029867182039292 0.0 -0.07040820607057145 0.010505099083343131 0.0
14 2 12.423469771604701 11.055366837627224 0.0 0.031850793733564677 -0.026824225808259567 0.0
15 2 5.24830968728006 17.735315583033813 0.0 -0.039082372635726476 -0.07954219554982908 0.0
16 1 8.146885515061287 7.662861337628016 0.0 0.1848081783275615 0.06271052970077365 0.0
17 1 1.015007070798719 6.7925739515809616 0.0 -0.07226334037301052 -0.18176973361581691 0.0
18 2 5.366877192034156 1.104253051449036 0.0 -0.03635270594083723 -0.04643665647358276 0.0
19 1 2.5783741058766947 1.6933242652123537 0.0 -0.05892709898601244 0.13361939830789302 0.0
20 1 4.06516872801633 7.313850927180185 0.0 -0.08677698844432755 0.044820407399095055 0.0
21 1 0.42136438867238907 1.6492259806690162 0.0 0.039286208403274236 -0.07176876696728969 0.0
22 2 8.534238290688783 9.712662396207364 0.0 0.05564943880282711 -0.0380744829262951 0.0
23 1 17.873194651578903 10.58525220926981 0.0 -0.0023919280812585934 0.005181363343874125 0.0
24 1 19.295655722064257 17.811988607511736 0.0 0.01606667376205828 0.14696767992698234 0.0
25 1 3.4222904108913763 7.056769332899039 0.0 0.01243754136188228 -0.17620781496223792 0.0
26 1 17.780960068935144 16.248955976260646 0.0 -0.010838938782349785 -0.07465097337052932 0.0
27 1 12.479649942792967 12.170526667984223 0.0 0.0352880488622437 -0.059956051072181174 0.0
28 1 8.509783253226669 17.517978127001456 0.0 -0.043173648930465665 -0.12419656059594071 0.0
29 2 3.1258026062987323 17.402375217343877 0.0 0.08985147064937535 0.0009468007984777093 0.0
30 1 7.36884898313884 14.547579691182701 0.0 0.008659315620877118 -0.07080671475665326 0.0
31 1 1.565025952539138 6.417093822648027 0.0 0.1121315155691255 0.06464166800610036 0.0
32 2 4.07852519930694 18.366381577209417 0.0 0.02191857275874349 0.03588852988939333 0.0
33 1 4.184730958466895 12.039533211717904 0.0 0.0827913587429297 -0.03686007070211646 0.0
34 1 1.4230641015400782 12.94430816853918 0.0 -0.012888972690007196 -0.04114578537824746 0.0
35 1 14.812692526279564 14.943220702379941 0.0 -0.0845346022944997 0.05092575744634422 0.0
36 2 18.578412243422736 14.124890829945224 0.0 -0.027135730818156092 0.0030177513829617694 0.0
37 1 3.1577203274399186 4.4664828077585685 0.0 -0.12205906404578917 0.012895970658310463 0.0
38 2 9.703486151105139 3.4643539758518775 0.0 -0.06817490258162359 -0.08543684720435779 0.0
39 2 8.291305960619306 12.943145573394439 0.0 -0.020495348773796534 -0.07333200434295412 0.0
40 1 11.923769431941956 8.221125902054077 0.0 0.0462709261059298 -0.1376984604353285 0.0
41 2 18.525892006077907 8.361006643666613 0.0 -0.15767688153331144 -0.026399407939724454 0.0
42 1 4.903958864479986 10.835612388446133 0.0 -0.023893846621379854 0.024235646193435337 0.0
43 1 16.834581917978202 13.968891888531658 0.0 -0.017734068756162617 -0.21759564850477958 0.0
44 2 12.519341832623486 5.969419201117098 0.0 0.003044899044063943 0.04110852737499887 0.0
45 1 3.177926150033815 1.9779341453831825 0.0 0.04101288869779387 0.013321863168758882 0.0
46 1 19.170762587617812 15.04029252600715 0.0 -0.08719818922665806 0.02982449629556083 0.0
47 2 18.70827757564129 12.107239163191384 0.0 -0.014285659168804164 -0.07828111916184244 0.0
48 2 7.6349457651191495 18.148338780673107 0.0 0.006920248268359189 -0.018969859463852413 0.0
49 1 17.202140563763038 15.934085996920295 0.0 -0.029570511678948773 -0.19326292880550447 0.0
50 2 2.3041464188892142 2.7253850157180386 0.0 -0.018336933971211777 -0.011832880824666768 0.0
51 1 0.20492201045499728 11.094601378886635 0.0 0.19354931794163782 -0.12481497120045303 0.0
52 2 18.681868388963366 3.5861416301707827 0.0 -0.08546335181717506 -0.02080582635672555 0.0
53 2 9.991352423389282 18.104133231348506 0.0 0.08677230145512732 0.06892464189788065 0.0
54 1 1.1431029689833796 19.22201754237122 0.0 0.0020994441672915 0.0962545000316691 0.0
55 1 3.525647023590331 7.716171097343121 0.0 0.08935259611747774 0.02680066526393911 0.0
56 1 11.443083021232667 14.153129239926763 0.0 0.01220040289135137 0.06869504960795782 0.0
57 1 2.1027826942212635 12.989280791131366 0.0 -0.03311700580278831 -0.0435263736474055 0.0
58 2 13.150145555111033 13.035810293670487 0.0 0.0067654850282029624 -0.03880548258168546 0.0
59 2 0.11790610591794752 3.9439939885583266 0.0 -0.02839016007784313 0.02366562183942033 0.0
60 1 6.551274943102642 2.9493412545296094 0.0 -0.006611299416132884 0.03425210320312912 0.0
61 2 13.534348145369515 3.523973087030486 0.0 0.007321865449474478 -0.014262027529417099 0.0
62 1 1.7017382797868896 11.612437086608987 0.0 -0.09697188727191258 0.12095188597761795 0.0
63 1 11.352039938798978 3.2274416699254833 0.0 -0.14438504639184951 -0.09704931311110654 0.0
64 2 10.489245139129464 13.630845215877864 0.0 0.013677012722256863 0.04552758826432161 0.0
65 1 11.843811149315195 12.018830009771738 0.0 -0.003412491934018264 -0.019870362901482325 0.0
66 2 15.706201224734091 6.91202594682992 0.0 0.05888870917031831 0.015237730011967019 0.0
67 1 14.48905402713316 2.07190345531176 0.0 -0.02861459196954997 -0.17790151600700346 0.0
68 2 7.7830905192564455 8.708571236152768 0.0 0.03603078034431468 -0.07833135593017002 0.0
69 2 1.1541580049107 14.639132187608498 0.0 0.01842119800592985 -0.061573257292927806 0.0
70 1 5.621103261474196 15.548171296583899 0.0 -0.0537701388123022 0.009720153889659825 0.0
71 1 5.981328525892691 0.1453209984014299 0.0 0.025634280717306307 -0.05310532596633906 0.0
72 1 13.925223533851398 7.973132853050272 0.0 -0.17210523410311848 -0.012298769169815779 0.0
73 1 12.564149535815611 8.00941366912494 0.0 0.10677606996630458 0.09139629136478437 0.0
74 1 3.9527331291270253 6.645013421278818 0.0 -0.032022806328001155 -0.031137943662823412 0.0
75 2 10.528957292305194 5.390767045390282 0.0 0.03682013994975881 0.022888879487947357 0.0
76 1 11.837454014733204 9.538196552697165 0.0 -0.11666447665346993 -0.005212692695989603 0.0
77 1 2.2339879366943856 16.742860585267817 0.0 -0.18306575064663824 0.0378813754395776 0.0
78 2 13.879873143197058 13.98851258822678 0.0 0.09998374227463282 0.07969403508284646 0.0
79 1 0.5210167764387075 2.3252084352962092 0.0 -0.04516747725501168 -0.00681947258513988 0.0
80 2 10.915504073786511 7.599617306615646 0.0 -0.029143430003901717 -0.014177588514867197 0.0
81 1 0.62909869527248 11.623734051798742 0.0 -0.034676754632942126 0.10702852075530098 0.0
82 2 10.203296346882116 6.584438534393451 0.0 -0.019339277153519744 0.023202631244799335 0.0
83 1 14.357125209361156 0.6153730611859685 0.0 -0.054877523392771806 0.005769775685134819 0.0
84 2 4.497889094144311 15.69176455762286 0.0 0.06391067709724162 0.024312730062303285 0.0
85 1 8.057466209180639 14.458421542076971 0.0 0.11880006871457632 -0.04644084507263282 0.0
86 1 6.6646791230905365 0.15993962280411486 0.0 0.07740922032290765 -0.043652941420607806 0.0
87 1 15.079439650652946 0.2205197368663917 0.0 0.11935635342953058 -0.0021095471040721643 0.0
88 2 16.525808916253553 19.003616987791624 0.0 -0.03700021968221311 -0.04939210759438718 0.0
89 1 1.034994270033769 13.53791959930629 0.0 0.011819125516015123 -0.030953059895248016 0.0
90 2 8.789082324862221 16.416417408495146 0.0 0.002632161355616544 0.06536548823246743 0.0
91 2 3.115140472716437 5.9807075306219515 0.0 0.001298581509133714 -0.08535340355640109 0.0
92 1 11.246967711047208 1.9361676300580253 0.0 -0.16666679661458594 0.21701290526000522 0.0
93 1 2.209532782256923 7.407168091054262 0.0 -0.06003561101411316 -0.08220704409083937 0.0
94 1 5.459472482804288 16.19280798219751 0.0 -0.03248447282019644 -0.009796124357558713 0.0
95 2 17.39732136654597 3.6039416543442355 0.0 0.009352379044330268 -0.04699826929676955 0.0
96 2 11.99118986066499 7.083874529878877 0.0 0.0727081233454285 0.03620046450802455 0.0
97 1 4.909040272121191 0.13539249142305732 0.0 0.04631850179788839 -0.06554617245527224 0.0
98 2 15.56292844422362 18.266775217390403 0.0 -0.08593462489334375 -6.89990117868532e-5 0.0
99 1 4.187156360774737 10.790039126921243 0.0 -0.07657813596000454 0.0305913906317435 0.0
100 1 7.248396360477055 13.270533760223127 0.0 0.0028023023806903243 0.06610401059271717 0.0
101 1 2.051010161591164 5.990856433681903 0.0 0.09545901417669 0.05515001441992846 0.0
102 1 15.705104187366034 8.035944661988633 0.0 -0.13252825714062313 0.17789114115724886 0.0
103 1 8.675013139876675 3.1152115103206777 0.0 -0.009336851031013529 0.019277750467426816 0.0
104 2 4.319781828657434 3.1897296509641606 0.0 0.055677788919274745 0.02935404444605319 0.0
105 1 8.72247228633759 8.000627125077463 0.0 0.0617099015204109 0.05533057780119633 0.0
106 1 3.4153255026134732 2.6060537019225265 0.0 -0.03273152780500655 -0.015441747503951114 0.0
107 1 13.24477960134001 8.15795059575491 0.0 -0.0557029927757447 0.01751321803298479 0.0
108 2 8.717171836031516 4.222589243004507 0.0 -0.02010471070137064 0.1330541625690991 0.0
109 1 1.4175166485369526 15.728557226975798 0.0 -0.08631233305207647 -0.007764694652426633 0.0
110 2 17.62454948100067 18.414714234465972 0.0 0.0676411716293431 -0.029682830544910867 0.0
111 1 7.498356809908312 7.654138876280132 0.0 0.13640434685724592 0.037713613170416424 0.0
112 1 6.958829111481901 8.011386362070262 0.0 0.0655121893042935 -0.11823355891955808 0.0
113 1 18.045004037645896 7.332884842209733 0.0 -0.06845020207331803 0.029861967489261357 0.0
114 1 6.1455180520527035 15.089223811495934 0.0 -0.009991085579606549 -0.1513033857534849 0.0
115 1 4.075205445024702 8.106294130585432 0.0 -0.08497265029329763 -0.12116765032531936 0.0
116 2 10.103689375913586 2.154005115519365 0.0 -0.002964444107538773 0.035522453304760636 0.0
117 2 16.189559037061557 0.4215730377334472 0.0 -0.016450964884743763 0.03016125089962367 0.0
118 1 17.48717728936846 14.097870472487285 0.0 0.11758679764429997 0.10553413352992085 0.0
119 1 0.1498999068885472 18.18398699422212 0.0 -0.05579296702700956 -0.02466647468464668 0.0
120 2 6.39327568456477 14.013837357104936 0.0 0.022238616402905864 -0.021102618529327183 0.0
121 2 10.444559892628044 14.850229472051215 0.0 -0.04474251873773516 -0.1434874595292721 0.0
122 1 11.216459225037784 19.61480706419718 0.0 -0.07908472595696185 -0.0343382065778301 0.0
123 2 5.506196623715984 4.786247359362284 0.0 0.01367856654948526 0.15140025763561368 0.0
124 2 14.125083837540245 12.246051124730775 0.0 0.02673774183058955 -0.005821396221356503 0.0
125 2 9.5782309000777 12.803741910978783 0.0 0.006434720777430636 -0.06743514885396315 0.0
126 2 5.593948544605254 2.3165242863769144 0.0 0.03801617171950305 0.04510283988441808 0.0
127 2 10.991651321291682 8.82744733742149 0.0 0.006805143304082333 0.0269074489813635 0.0
128 2 16.75669530964015 2.5186651971382847 0.0 -0.012984847543200293 0.03570594331694614 0.0
129 2 12.193683179588513 17.851372960868005 0.0 0.04792634040988357 0.05240603712713378 0.0
130 1 11.34628466457228 6.146433430518838 0.0 -0.0777991360625534 -0.11837691010360131 0.0
131 1 4.3831032110506865 19.449235090082013 0.0 0.12530798979979693 -0.07790407585973805 0.0
132 1 6.832626674388297 15.009765081364026 0.0 0.04333030391098815 0.08688219421341374 0.0
133 2 10.11592753396256 19.419536029055564 0.0 0.019330186395738472 0.01615205324656715 0.0
134 2 15.951972784315204 17.047688026850132 0.0 -0.030974184864872353 0.008440130074656752 0.0
135 2 18.300002854686294 6.231310125560778 0.0 -0.06611945638917568 0.01268397692366133 0.0
136 1 16.321757972942013 15.647402144856638 0.0 -0.11724183343408066 0.004598658467870802 0.0
137 2 15.942065693767132 14.628995279509656 0.0 0.01999266124131228 -0.02664177710358625 0.0
138 1 3.1051807693039923 1.304470625791287 0.0 -0.08701310946781872 0.10071598364426522 0.0
139 1 19.745108036017097 16.74348595960551 0.0 0.09292995126225466 0.0751457597043423 0.0
140 2 14.330723111638175 4.7789479505253265 0.0 -0.02935656951664605 0.08421861128838093 0.0
141 2 2.739959531162893 13.884611291972773 0.0 -0.009256702391845324 -0.021782854830917842 0.0
142 2 8.137873589505316 1.038735283639794 0.0 -0.02860283466663884 0.03038963007596185 0.0
143 1 6.901785913830887 5.772673757110948 0.0 -0.027303593385419826 -0.00563334012254367 0.0
144 1 1.643414303644173 7.793958778039678 0.0 0.00021756372246686885 -0.002041590303538575 0.0
145 1 16.69430687916772 11.468005380609627 0.0 -0.1302467362673162 0.09222457265572488 0.0
146 2 6.528038502976307 17.528184761532923 0.0 0.06670041226431948 0.10944904652929734 0.0
147 2 11.726544041380787 5.01417377069169 0.0 -0.04593541677910181 0.04634945402908537 0.0
148 2 9.494367822046996 10.480839089480606 0.0 -0.016895901982953963 0.006800063982945268 0.0
149 2 13.806396364767227 9.080731265295208 0.0 -0.11827528484365828 0.020286222510346417 0.0
150 2 0.045384425862981366 14.01897133031222 0.0 -0.07242324349220768 0.008066576971994817 0.0
151 2 14.883404418777525 3.6604384340574763 0.0 0.10713980640273826 -0.056987535954717373 0.0
152 1 15.726829593180339 15.965802936256482 0.0 -0.2715675984590649 -0.07155866843688229 0.0
153 2 8.870843031351525 0.03077790476609412 0.0 0.045947854087986816 -0.004975400600266818 0.0
154 2 14.405291242736448 19.143034593355605 0.0 -0.04001939941567243 -0.05885199861070507 0.0
155 1 3.6108698038617746 4.981650475345373 0.0 0.04533352083247099 0.041335049243600576 0.0
156 1 8.889928605883494 11.98154924082168 0.0 -0.023428908187755088 -0.04988981560359754 0.0
157 2 7.942300706308723 2.284351023555116 0.0 -0.01079624346703869 0.10956287602598616 0.0
158 2 6.764478240644258 6.8682456517016925 0.0 -0.011757983824534197 -0.00109521091258368 0.0
159 1 2.8407889657006216 7.68599783194966 0.0 -0.03245355359581747 -0.09400841613579651 0.0
160 1 12.488200202384498 1.5408313513817116 0.0 0.06495276505852231 0.07954215018932789 0.0
161 2 15.656317209592244 4.771685997191058 0.0 0.08634594869519117 0.13170902612332136 0.0
162 1 19.1235040662346 16.440655870979295 0.0 -0.0995972369718492 0.09273478992500853 0.0
163 2 11.155894683966473 11.167366448500706 0.0 0.010984518304039822 0.00015757632913707348 0.0
164 1 17.04613314170483 17.37215505620001 0.0 -0.09336029820911824 0.06257218977447017 0.0
165 2 1.4924106404663096 1.7700478704116103 0.0 -0.00430507893499733 -0.03056516661921569 0.0
166 1 15.474550885853553 19.37313746343455 0.0 -0.007750708013412394 0.08191782485569596 0.0
167 2 3.113159396765255 16.080092156253844 0.0 -0.045728101122168574 -0.05988969751759015 0.0
168 1 17.682982633592317 13.426773259343795 0.0 0.0027815566149507506 0.1337994725358234 0.0
169 1 2.3884273115820873 1.075410107845151 0.0 -0.08672786808157852 -0.23600106700168486 0.0
170 1 18.978450348312034 15.72867582565489 0.0 -0.04517002923005338 -0.13525819734791633 0.0
171 1 4.505311542756204 10.231941779193807 0.0 0.02698664635898965 -0.004533679040767264 0.0
172 1 1.650925803586936 18.805761445984547 0.0 0.012036115597567752 -0.09095643805672131 0.0
173 2 9.979948478613029 16.011418334581666 0.0 0.03220215338419999 -0.03423105387225235 0.0
174 1 2.140787502198682 5.319769694267117 0.0 -0.10518098828367345 0.08112653934494993 0.0
175 2 7.672216722902565 19.50597614713121 0.0 0.024268610713275948 0.03870770028128386 0.0
176 2 1.3468758473297064 4.557592655877359 0.0 -0.10376769996622913 -0.07497667931293304 0.0
177 1 2.334864352610296 11.916989530131028 0.0 0.1022483787743571 -0.22029056001274158 0.0
178 1 19.062580121405574 13.155235364631391 0.0 -0.09823532169243519 0.039416439180542155 0.0
179 2 5.365918480684991 8.488665223048956 0.0 0.012467324484618373 0.06213191603543575 0.0
180 2 18.0468520103802 2.4165043246850617 0.0 0.015171887177052524 0.06366246611753001 0.0
181 1 0.4501591889025586 7.108465958362244 0.0 -0.0981480586126142 0.0328131255684412 0.0
182 2 11.86748293955735 13.129729299343953 0.0 -0.0510850435251988 0.06706111548613655 0.0
183 1 3.7085655906795094 19.38800794656794 0.0 0.0828950688131423 0.014996134253678491 0.0
184 1 8.84560066104554 18.123932051780375 0.0 0.006803183554400996 -0.009235064562485119 0.0
185 1 16.625686736978764 16.2392378729785 0.0 0.05622688803672283 0.07735953174602356 0.0
186 1 0.13828920464697347 17.46378217593008 0.0 0.08236143675824244 -0.1652866810540916 0.0
187 1 18.267209787776736 13.087624345167459 0.0 0.08221392634969574 -0.06270106158405436 0.0
188 1 17.901071362975237 11.283033395039524 0.0 0.06976549561234498 0.009425556313391733 0.0
189 2 14.415770173841208 17.83902376854582 0.0 0.05107564937316864 -0.04377816721076103 0.0
190 1 19.013262556190465 1.9052627845566568 0.0 0.06177776927369608 -0.08081731729519562 0.0
191 2 17.456837325945195 0.09545038931149934 0.0 -0.03393670168831916 0.035368031069539445 0.0
192 2 13.766366493549281 5.898909476785341 0.0 -0.06963268404910967 -0.006853452688424106 0.0
193 1 18.70436009105749 18.225514868490876 0.0 0.01084178386802235 -0.08961752391820764 0.0
194 1 16.74885628624016 4.527401006279022 0.0 0.03444608430764656 0.06801164009910661 0.0
195 2 8.944546825596492 6.913906670316465 0.0 0.08804095681999584 -0.029674402899379435 0.0
196 1 1.184856393404303 12.035709942219622 0.0 -0.018179947489971374 0.03785980077845904 0.0
197 1 4.419194069155082 11.409193080723334 0.0 -0.07407384981164533 -0.10720288956621737 0.0
198 2 15.021612596106687 5.851537652422008 0.0 0.06997452330702754 0.036017952735813846 0.0
199 2 6.557992470471348 10.37228747630373 0.0 0.00453660551319401 0.013785444859317559 0.0
200 1 19.164179246003055 2.5760871386285586 0.0 -0.05302649341062248 -0.0954456899130231 0.0
201 2 16.33427419948986 8.956186230447656 0.0 0.038288587714967064 -0.09406177071605588 0.0
202 2 7.7555715374489544 10.840588600206068 0.0 0.03325583222027775 0.025094667180966236 0.0
203 2 8.009980002526868 6.009830750960486 0.0 -0.06208192721598231 0.008427823843501957 0.0
204 1 14.91936195148554 14.289902888313096 0.0 0.08291417437179 0.11419261859839404 0.0
205 2 17.03740004351352 6.892107189527058 0.0 -0.06343461294351978 0.014101397220937858 0.0
206 1 9.770118820976766 4.595510232741127 0.0 -0.089522239056829 0.06800395240507064 0.0
207 1 9.784586117754325 7.612398279021805 0.0 0.13186990821315783 -0.042673846491670095 0.0
208 2 17.325619508515096 8.163944837436997 0.0 -0.0890643621611628 0.07897550777946022 0.0
209 1 17.445812530494013 9.247112715322663 0.0 -0.03268626095469946 0.11211434609081054 0.0
210 1 6.53561813051468 5.20999601241031 0.0 -0.02239395953976367 0.08643725254491433 0.0
211 1 5.742637631416112 16.775437780226323 0.0 -0.08472517345705984 0.07658612188372767 0.0
212 1 14.097393972161823 15.061673026917223 0.0 -0.03695521291229963 0.09207866546600195 0.0
213 2 9.252183139860186 5.601405507418325 0.0 -0.16243345417152819 -0.013382480567851792 0.0
214 1 9.72050483014734 17.05951180842484 0.0 -0.026513398876476784 0.07340410105817242 0.0
215 1 15.706563285890324 13.527234676883056 0.0 -0.013307376789293078 -0.05749958605042241 0.0
216 1 14.759088054679077 11.38328236370245 0.0 0.16232324330808498 -0.03725638792105528 0.0
217 1 4.241088967451143 17.2884760318752 0.0 -0.01819435035253589 -0.09826980924512245 0.0
218 1 15.060872736153684 13.650953197272282 0.0 -0.023946389503972657 -0.012015376420584247 0.0
219 1 11.75952344295439 10.209738083077413 0.0 0.14389861962606781 -0.06293752475843957 0.0
220 1 0.7902436598451181 5.500513509309765 0.0 0.06306228710234126 0.056185997533775 0.0
221 2 6.25257973142106 12.800907458324687 0.0 -0.014231092080541014 -0.00367887928741935 0.0
222 2 9.73052967384882 9.260298418994923 0.0 0.06010690722123022 -0.053403692454291427 0.0
223 1 19.238799146019428 17.145186779159573 0.0 0.01955600367893746 0.030236129930069633 0.0
224 1 17.025693706878407 9.785957570414102 0.0 0.011515659042248882 0.15654166011206702 0.0
225 1 4.578195323745692 6.825110412041491 0.0 0.14608693618019694 -0.04552462544702238 0.0
226 1 7.604767712850806 13.892529991927917 0.0 0.03389009530302596 -0.010210333051062023 0.0
227 1 4.382127807285386 4.892529857903193 0.0 -0.07870383307994906 -0.0054935925541116 0.0
228 1 6.388179350658293 0.7591032780438045 0.0 -0.09331075682782933 0.052289176705132646 0.0
229 2 16.16688932720901 10.472807143761825 0.0 0.021298480876374874 0.07413524830308862 0.0
230 1 17.262008546036988 11.099269556101856 0.0 -0.10708171554633737 0.046097010932821356 0.0
231 1 16.324490416318095 7.796207823030437 0.0 -0.08845938046629914 0.08062329818382477 0.0
232 2 12.171485086616153 16.65173560717368 0.0 0.136843807551384 0.016092920062763274 0.0
233 2 7.615978726478035 16.858947193457276 0.0 0.04716667833063308 0.050343602657578465 0.0
234 1 16.636756730388317 17.911620297282514 0.0 0.08499981057744703 0.1776724736408391 0.0
235 1 3.474316806926164 3.8735610873424595 0.0 0.06021967284295231 -0.1313565648286808 0.0
236 1 2.93555708878554 0.6607657173791841 0.0 -0.009176988375393555 0.05805917308513195 0.0
237 2 19.697022905333323 8.713213392730077 0.0 0.07154181847854621 -0.029176132852268527 0.0
238 2 9.061728221497194 13.93715054689929 0.0 -0.024601599393173607 -0.022622935527985014 0.0
239 1 10.040753517409774 8.233530527972622 0.0 0.09312217477794252 0.002384626991361643 0.0
240 1 13.499222950383732 11.357007607427802 0.0 -0.012408966990044968 -0.0844679228693511 0.0
241 1 18.351203561174383 9.978310044115917 0.0 0.06057543938743811 -0.09806483260433507 0.0
242 2 6.535105912483091 11.604795695664953 0.0 0.07337812404621058 -0.008098100906025502 0.0
243 1 15.226823478401997 15.518305738783816 0.0 -0.09274290008441613 -0.10727350921512288 0.0
244 2 16.78253479929695 5.629626392182693 0.0 0.06656154295575165 0.007297754275106577 0.0
245 2 10.774508406904127 4.156351012542925 0.0 0.051923312495733405 0.016179427805759847 0.0
246 2 2.070000772749485 0.040306162701275496 0.0 0.05208810412021161 -0.05778795041235047 0.0
247 1 3.242152729378588 3.2565594389656107 0.0 -0.10056570826584987 0.03393253194216827 0.0
248 2 9.914579818232228 11.606570932014389 0.0 -0.0040573224525701146 0.02473835678754712 0.0
249 2 18.15560315646005 17.27062451625541 0.0 0.07490498183502635 -0.02293160894912933 0.0
250 2 3.1839849326714518 12.672617591570614 0.0 -0.04473199028353251 -0.06566790592429 0.0
251 1 1.9795730433909677 16.12354681204969 0.0 -0.10155808497762764 -0.02183938804246046 0.0
252 2 0.3216770921603441 15.689637009907704 0.0 -0.05414767000681325 0.02166466028648242 0.0
253 1 18.030037186195496 4.505289016370126 0.0 -0.051291823893980806 0.13028960847532292 0.0
254 1 17.24032091922775 10.421997014549722 0.0 -0.02956769769547092 -0.023012971334460616 0.0
255 1 18.4714542692199 16.192448322947456 0.0 0.10149825882376708 -0.05558890888382116 0.0
256 2 10.700603628805633 10.031812325128236 0.0 -0.05770009579272958 -0.009822375551328703 0.0
257 1 19.658189579665994 2.0719199961600516 0.0 -0.03671222122494111 -0.007360990493493064 0.0
258 2 11.220174331610778 15.841103164858398 0.0 -0.011097123005622087 -0.020311632511533954 0.0
259 2 5.482900062570825 3.5310825077446775 0.0 -0.028907215068459936 0.18046942518168688 0.0
260 2 15.391510976538784 12.45339304456972 0.0 -0.06864561492761495 0.03920265167200849 0.0
261 2 13.317514802999384 17.240865047157083 0.0 -0.035874496164825936 -0.018289502592895707 0.0
262 1 13.095231807823545 11.913178884678263 0.0 -0.019227997554604387 0.2010678620193124 0.0
263 2 6.563423135999144 4.096318150427504 0.0 0.03358225853687547 -0.023167007151847753 0.0
264 2 19.73575447242041 9.994686888746918 0.0 0.07978053213487812 0.07577667994685806 0.0
265 1 4.58115831983207 4.244088715875471 0.0 0.012019094589308315 -0.023836427374327403 0.0
266 2 2.3188043031181187 15.066341082159813 0.0 0.044577743458400224 -0.034015221398183346 0.0
267 2 5.564193338671686 7.223918862658688 0.0 0.030794287743650634 -0.0843901432654729 0.0
268 1 0.7552862501657723 17.87038172190845 0.0 -0.01445070617613426 -0.03133772964979019 0.0
269 2 13.574290512494098 16.047274449268503 0.0 0.008095566723817485 -0.017649905247481355 0.0
270 2 3.405544453467543 10.051385125245396 0.0 -0.014564390931395596 -0.02363006528086219 0.0
271 2 13.327464048167782 18.50921359835931 0.0 -0.0429757680169574 0.020231388602454076 0.0
272 1 11.798287963015616 1.5772555995143882 0.0 -0.059050730261362594 0.054875154048983944 0.0
273 2 13.068354411838696 4.810352368017399 0.0 -0.0528028502953646 -0.009777118066021571 0.0
274 2 19.142257128000804 7.296838295938872 0.0 0.022765924475132402 -0.02642540460287456 0.0
275 1 16.026141960925735 11.556038276308481 0.0 0.07601708444431722 -0.08958576772780567 0.0
276 1 1.8149587451581763 12.351617611237632 0.0 -0.11565919940023472 0.05827763270974879 0.0
277 1 17.18650173159421 16.664130327940914 0.0 -0.02926470523160807 -0.08089590856275095 0.0
278 2 18.981180177235416 5.033816108076512 0.0 0.006396157441648126 -0.031021595684699088 0.0
279 1 4.7246049770564 16.772677864607612 0.0 -0.07559991866286833 -0.02887578664319735 0.0
280 2 17.025339282083845 1.3263258788342316 0.0 -0.004195543943859601 0.006525722748600954 0.0
281 2 15.489882363460545 2.5369217404759326 0.0 -0.07425789986202132 0.14727679569712565 0.0
282 1 18.103961477584786 9.355525890261761 0.0 -0.03124502807051086 0.04504382701146434 0.0
283 2 11.123266754051155 18.51885492434276 0.0 0.032769460114974946 -0.019143181581740727 0.0
284 2 3.993486906389331 13.727309697108401 0.0 0.019701742365442084 -0.014004536094786121 0.0
285 2 9.639907569035442 0.9900453761888159 0.0 -0.04372514818451545 -0.06098626259096959 0.0
286 2 0.3243159701823816 12.716856259359606 0.0 -0.0567920692449237 -0.00977175196398908 0.0
287 1 5.596750051765857 10.921605263210672 0.0 0.010650541564180764 -0.020292524907654777 0.0
288 1 12.74769930834793 8.665107717515227 0.0 0.006945328928163401 0.05384915102513657 0.0
289 1 2.197085226975034 6.663448044896353 0.0 0.15390062326936466 0.0031220028178679544 0.0
290 1 8.964140604097851 1.862352789177185 0.0 0.10565541723615891 0.03384078713530271 0.0
291 1 7.596589370030597 11.96843534443171 0.0 0.08272938854839626 -0.101815175190422 0.0
292 2 3.1658050119116727 8.740267228327957 0.0 -0.030384740080405977 0.037154043829740156 0.0
293 1 1.0419874411037482 7.459159638151007 0.0 -0.1352688023985799 0.13911611170044802 0.0
294 1 10.69696054609637 3.073283236281264 0.0 -0.004174438802625782 0.02962180763954852 0.0
295 1 0.44805930671923666 7.77485746145268 0.0 -0.08271734296000308 0.059059817106350096 0.0
296 1 4.080737356976664 5.498683364253097 0.0 -0.07239974818813914 -0.04893851501430327 0.0
297 1 7.072174412585292 0.7141088652748233 0.0 -0.14345459144524272 0.04270018509129193 0.0
298 1 2.454730288243547 4.370169713785982 0.0 -0.08015842879866215 0.024231595962769834 0.0
299 2 18.91561072436347 10.885019365933038 0.0 -0.011260325084565143 -0.002545312168097192 0.0
300 2 15.309683251873071 1.299494326136829 0.0 0.05524997798013707 -0.01386773866900628 0.0
301 2 1.1405489953688472 3.224498913233062 0.0 0.022015715376440162 0.048886729589571944 0.0
302 2 12.43111555391631 15.44400274604221 0.0 0.02382828794576339 0.019348005214135818 0.0
303 2 2.3355105236920997 10.727547623315381 0.0 0.0069618026744858895 0.025528607502854458 0.0
304 2 1.0023339647322027 9.300730549896388 0.0 -0.007727823954212191 0.00010566967877439527 0.0
305 2 6.597893714083889 16.101247662730408 0.0 -0.0010069804403567933 -0.038212207681690646 0.0
306 2 5.287467379227668 12.011342358835519 0.0 0.09335258838653591 0.012318217145319353 0.0
307 2 12.104602080168057 0.5267597484992735 0.0 0.08460634024788018 0.0017235036042611924 0.0
308 1 19.30855390195605 18.481739538399793 0.0 -0.03417061602275571 -0.08887051567295873 0.0
309 2 18.009692789706705 15.176622354130078 0.0 -0.0044010551549632446 0.06874745424859047 0.0
310 1 11.13918125601568 2.5863505016943433 0.0 0.09841730201321088 -0.04093884144367256 0.0
311 2 19.449501459487692 0.8507432351539389 0.0 0.021581239030723787 0.04312996657009087 0.0
312 1 8.252756492801284 11.815080130020226 0.0 -0.07336195707625402 -0.1610113335574368 0.0
313 1 2.7945125192814615 3.7746706615685293 0.0 0.14132912555665 -0.17672014118056334 0.0
314 2 1.142635682083976 10.603637081901876 0.0 -0.06041686569300068 0.018494371227373508 0.0
315 2 3.3020659904221326 11.42891476932032 0.0 0.029300562431559884 0.031998256068989345 0.0
316 1 18.792975961195882 9.44800264270231 0.0 -0.042128792112885366 0.01590696207182689 0.0
317 2 17.460730816197113 12.303081088004618 0.0 0.022002181610078622 0.11059914931250045 0.0
318 2 13.398626379967597 2.1716794963609773 0.0 0.09521458928284061 0.02885319330452679 0.0
319 1 17.00703560974865 13.314954063255435 0.0 -0.028455151052005127 0.06829903428335193 0.0
320 2 6.594141583684066 18.839490283158042 0.0 -0.018230390716285 0.043473589044161945 0.0
321 1 15.059429183436887 7.861635000332155 0.0 -0.019558152095062144 0.19911348188985495 0.0
322 1 17.68050186703763 9.900114736079123 0.0 0.03995492897418604 0.15312492499557723 0.0
323 1 19.704967537703812 11.69264719373275 0.0 0.09223951461643477 -0.013478146498203673 0.0