ITEM: TIMESTEP
0
ITEM: NUMBER OF ATOMS
400
ITEM: BOX BOUNDS xy xz yz pp pp pp
0.0 19.7609 0.0
0.0 19.7609 0.0
0.0 10.0 0.0
ITEM: ATOMS id type x y z vx vy vz
1 1 2.7914196303212186 18.472899644614245 0.0 -0.053820565371211215 -0.03042697388390899 0.0
2 2 14.632007123954992 3.39143007016016 0.0 0.04352855806515496 0.023513775678544752 0.0
3 1 14.261038725098302 16.93893257290694 0.0 0.08297968214956755 0.014250108677698119 0.0
4 1 0.6763810689214642 19.275320966151074 0.0 -0.03783437111498302 -0.09377174494744343 0.0
5 1 0.5232969386881482 9.955961086870731 0.0 -0.05919413858967787 -0.004438484438493172 0.0
6 2 5.905099904527935 10.344629674983864 0.0 0.04708352371559785 -0.0377596267353919 0.0
7 2 9.925576017176853 16.527538009861075 0.0 0.06969893451307894 0.03213581142120022 0.0
8 1 19.124823334437835 19.67602463512977 0.0 0.09220547621114834 0.025234687464636234 0.0
9 2 0.06511992044575142 5.313232837270924 0.0 0.02295862260831675 0.045721966657107434 0.0
10 1 16.721614793467406 19.001773599489624 0.0 0.17024489111351454 0.07087208989300624 0.0
11 2 7.2977346344479175 1.4382456430682937 0.0 -0.024862302308531058 0.0160746654335218 0.0
12 1 11.44822864559253 14.15257941748838 0.0 0.007528421976217387 -0.06977678278635803 0.0
13 2 16.241012347018444 14.361401953941217 0.0 -0.042161215906404446 -0.028196956297432636 0.0
14 2 17.655381363602483 5.137126749105566 0.0 0.08718508977595095 0.03421393834608085 0.0
15 2 9.749362176216655 2.9725755841120565 0.0 -0.002729475252775702 0.014620101478771472 0.0
16 1 4.7616954043809905 13.04634443295142 0.0 -0.09216227245200531 -0.04025842157622554 0.0
17 1 18.45015902398582 9.097810178456408 0.0 0.017645872961541575 -0.05282295838827276 0.0
18 2 10.344387499532191 10.425245454867866 0.0 -0.06070780978247783 0.0673459713999553 0.0
19 1 10.13091433735516 19.330017028397705 0.0 0.13175011928766162 0.0711564777621031 0.0
20 1 4.980105006540037 19.580065408933876 0.0 0.056816725267869767 0.18152768948752218 0.0
21 1 14.172495454359872 12.620368690860799 0.0 0.11421207781025383 0.09568833258475286 0.0
22 2 3.3098542413516014 5.700105191964772 0.0 0.0005890895104942782 0.012591667134270245 0.0
23 1 11.398991956251585 19.426241943851114 0.0 -0.03374558106930666 -0.10162199025774458 0.0
24 1 4.456995086341139 17.545201144530836 0.0 -0.08594007254646874 -0.16639100529876188 0.0
25 1 17.88458054825979 4.031470032107569 0.0 -0.07537781112673093 0.010698494848629895 0.0
26 1 13.716674496219193 15.816341499291696 0.0 0.10556550243712734 -0.12777744179530626 0.0
27 1 3.402225328493232 7.942229442406078 0.0 0.0474561955369676 -0.09304321646487675 0.0
28 1 5.64035801057597 19.746468725311455 0.0 0.018930242277847786 0.0402866148965439 0.0
29 2 12.474166672044143 14.641078984743944 0.0 -0.004420427832754827 -0.13564037552922484 0.0
30 1 2.2780961294808995 3.9087781212826016 0.0 0.0746869426622932 0.013536467776871624 0.0
31 1 19.519414886254456 10.9821476302885 0.0 0.043251767644262785 -0.002950658728598127 0.0
32 2 8.581011861702454 4.952309020784311 0.0 0.00448926927085338 -0.029583298650818334 0.0
33 1 8.287335624179283 1.9829574477157874 0.0 -0.08756582489250045 -0.12697509944461358 0.0
34 1 11.672733421178899 12.364058558330186 0.0 0.01409850351691248 -0.03783944552088039 0.0
35 1 3.442972053209205 2.1008147914758784 0.0 0.06557162498159337 0.02802380096022514 0.0
36 2 17.718501641572555 17.225581070090094 0.0 0.06431541150455639 -0.036848749201273005 0.0
37 1 19.37336103787026 19.04906770742724 0.0 -0.20734910388035455 -0.00561107477663452 0.0
38 2 15.680098625065016 9.394097928057661 0.0 -0.03800901037257796 -0.11348844860550443 0.0
39 2 16.3541652859881 5.271401654738483 0.0 0.029028047097369853 -0.038329820738905125 0.0
40 1 6.092469485780675 19.155463777155738 0.0 -0.033075386123843045 -0.04228305717422417 0.0
41 2 5.779169192605098 18.060628616025852 0.0 -0.07010645369306226 0.002356023818623424 0.0
42 1 11.837759385528734 4.806633609206479 0.0 0.013246669220663983 -0.020908287674419417 0.0
43 1 3.5808626728837103 10.47612203363047 0.0 -0.14301791021247934 -0.05175684563906811 0.0
44 2 5.63114369875406 7.168208972560413 0.0 -0.1009074662709071 0.022454757422082226 0.0
45 1 17.776333656843406 9.038487678212638 0.0 -0.11151038460042349 0.03551063646579527 0.0
46 1 9.974543289780712 12.154180781549377 0.0 0.04716087119806555 0.010298527213935899 0.0
47 2 3.1319683331810464 14.82071239122852 0.0 0.008032118028775343 -0.049243188730464654 0.0
48 2 15.31667880987299 19.74752256738597 0.0 -0.024136056756775322 -0.08404075991120047 0.0
49 1 1.2633881514580165 3.449687816023036 0.0 0.0739928525894739 0.1168073780349168 0.0
50 2 2.212839201438594 4.988894679254074 0.0 -0.05109555391577288 -0.04270733644817298 0.0
51 1 6.881091997205382 0.4138441355672465 0.0 -0.07924833997559026 -0.12937620482400403 0.0
52 2 15.448079275020485 4.365769295512038 0.0 0.08240217431339955 0.01706364769801724 0.0
53 2 15.985606028025641 15.555010289208774 0.0 -0.02434305229223815 -0.0053541383233925805 0.0
54 1 8.087368162520503 17.756928473290255 0.0 0.0709316172966612 0.03416472898035592 0.0
55 1 5.475295011228831 3.0307211518078554 0.0 -0.06920963349542235 -0.12274439532616666 0.0
56 1 12.393499708883141 19.55269916438804 0.0 0.02095307895870624 0.1557515845585052 0.0
57 1 17.031574997962785 3.0518802257306006 0.0 0.03444407535138823 -0.10243983371157839 0.0
58 2 5.151122057503186 1.9759093479325214 0.0 -0.051896251814489515 -0.06924239713960562 0.0
59 2 5.440263396252614 15.574730119702133 0.0 -0.10746995353113822 0.015642048342018537 0.0
60 1 7.010310402617459 7.707794791041163 0.0 0.03230178929030791 0.04932690080402748 0.0
61 2 6.7165666002789255 6.622985275219488 0.0 -0.008322528977873814 -0.054708732295507954 0.0
62 1 1.2573790662910316 13.147497374577423 0.0 -0.04989556513884461 0.087417039480851 0.0
63 1 1.6097350279478602 16.271337404696826 0.0 -0.01628562097220576 -0.0411194046907466 0.0
64 2 12.327798872729142 11.430509181071514 0.0 0.09926013172565339 0.10102727931955159 0.0
65 1 1.353221189268598 2.793092624294054 0.0 0.0029817918101496064 -0.04297146153700448 0.0
66 2 17.220602876904312 15.153033629872468 0.0 -0.08126021754536553 0.01510100495766478 0.0
67 1 13.752664941670375 16.49326982341106 0.0 3.5633274683858676e-5 0.005418056548052743 0.0
68 2 11.220729151971433 3.165286314593794 0.0 0.10224601664046483 0.006667853735775561 0.0
69 2 13.041905391977377 13.487131741187955 0.0 0.06471466854603355 0.12266852752940394 0.0
70 1 10.573473702418738 12.4397858087747 0.0 0.05221527917279186 0.09761884103499853 0.0
71 1 14.99780784664623 2.350689506449458 0.0 0.07635947532905707 0.030144431017355457 0.0
72 1 11.137417335621404 12.809025604476133 0.0 0.004829201274139262 -0.04293033461438628 0.0
73 1 4.252854183015605 10.523340498618325 0.0 -0.020012517906840725 -0.05500087541594101 0.0
74 1 4.897108122234983 16.53229985970924 0.0 0.06348647081475159 0.05436313222058705 0.0
75 2 17.288774411114268 0.7992570313491923 0.0 0.014423406433741568 0.027326273146471396 0.0
76 1 3.7458925827525826 13.862531171350478 0.0 -0.062411192024496576 0.00694675485259486 0.0
77 1 12.893392281249941 12.374188979901275 0.0 0.06082158394857801 -0.011070513662860028 0.0
78 2 11.773188979682958 1.9933775770656375 0.0 -0.048188972511164455 0.0136426004131792 0.0
79 1 17.838609692052337 11.869499399014906 0.0 -0.0354892851301828 0.01843702803464948 0.0
80 2 5.800327670378411 12.713041859818855 0.0 0.014891395424099181 -0.03845216318180309 0.0
81 1 3.2765834194905863 9.8608722240458 0.0 0.07761239683863091 -0.046920923509344 0.0
82 2 0.5235078869910491 17.626648470012157 0.0 -0.022521571036467413 0.04510627093667043 0.0
83 1 5.916682702637079 9.260396057878987 0.0 -0.011817485112179303 -0.04444371429651656 0.0
84 2 8.919203302357138 6.159479000998976 0.0 -0.017204650007849282 0.03994217905719457 0.0
85 1 0.0502240594403591 19.559480057084645 0.0 0.03971677500382088 0.08463694013127533 0.0
86 1 18.506339767752372 16.437840043977786 0.0 -0.1177404463981461 -0.03414594106081339 0.0
87 1 2.1952131759578646 7.721424728182881 0.0 -0.0656693297076613 -0.04873115634296333 0.0
88 2 13.107134028505934 8.411855630924848 0.0 0.024000795317260643 0.058094852094306766 0.0
89 1 3.632439247193472 11.674689181963013 0.0 -0.03160640336831264 -0.00942980275368217 0.0
90 2 2.0122818679211405 10.962300157663961 0.0 -0.04040692324309551 -0.005590509150593534 0.0
91 2 18.697102936625946 3.225864808980638 0.0 0.026256061018826122 0.08183362894105838 0.0
92 1 11.847829459306036 4.129951624906381 0.0 -0.024693875914565254 -0.10528491939274193 0.0
93 1 11.954633357753687 13.691108523565319 0.0 -0.09368657646219909 -0.008489318868891564 0.0
94 1 4.747573834391345 12.35825943317546 0.0 0.0010683874884041596 0.062035771941731745 0.0
95 2 16.561996410389025 16.639264762433783 0.0 -0.00894763064546761 -0.0315352589634086 0.0
96 2 2.6709058899514666 17.36505363650212 0.0 -0.10152246433473021 0.006788316976474223 0.0
97 1 4.704191300838301 9.94820151953813 0.0 -0.015172328770852629 0.060067690245207986 0.0
98 2 18.01624342048282 10.14348535397137 0.0 -0.03149681346718587 -0.09114973042814566 0.0
99 1 7.677046618023393 16.574304441747454 0.0 -0.12362919863767936 0.04764029622516232 0.0
100 1 15.935276289778612 8.306715195395332 0.0 0.03541414878759026 -0.0784560472392337 0.0
101 1 14.07454926325814 13.976364382143664 0.0 0.049282905514916146 -0.05658393979419744 0.0
102 1 12.449670268406647 0.5004737854067383 0.0 -0.03649334108576229 0.07548261773014388 0.0
103 1 10.772271208894784 17.285081999343358 0.0 -0.01565081289037654 0.07824860775154366 0.0
104 2 18.546077686503565 0.833049881284563 0.0 -0.025840146359601635 -0.03240861766265101 0.0
105 1 12.202617417555969 5.421735302650355 0.0 0.014398767483855117 -0.14336971753545413 0.0
106 1 2.577335972371364 8.726382834188026 0.0 -0.024639622914943947 0.07754350729081609 0.0
107 1 2.936621743118646 10.449107292995341 0.0 0.019607036467686245 0.010455790025759186 0.0
108 2 19.654973262547763 16.515245452803175 0.0 0.0612049010133392 0.07051536240664288 0.0
109 1 8.921470102115084 9.685396101940974 0.0 0.017675441741143817 -0.05876177553364162 0.0
110 2 14.197199696481634 4.6973178741753 0.0 0.02146757527514383 -0.031350359745235555 0.0
111 1 19.4245996166249 14.174427933727893 0.0 -0.00933215392872019 -0.14641692433762904 0.0
112 1 13.32427587842398 11.874476427430224 0.0 0.05210258707480341 -0.008624747075161976 0.0
113 1 17.550513033852095 16.17526875488587 0.0 -0.013872846847073513 0.06054254596221767 0.0
114 1 18.54835294943855 19.31227674706122 0.0 -0.01178818427029533 -0.09512758425172758 0.0
115 1 18.557509910786617 7.879330377713405 0.0 -0.0004000084123858473 0.04400714467521349 0.0
116 2 16.83497996465954 7.624574251974671 0.0 -0.005535464871889439 -0.04268776604870516 0.0
117 2 0.12778517928955313 8.90383702685948 0.0 -0.03165511271000623 -0.009816761205806176 0.0
118 1 16.841632270508473 1.7740649034236404 0.0 0.08649107074198162 -0.12411561627651164 0.0
119 1 14.586372451190755 18.768335204416882 0.0 0.0028885122364564735 -0.12078073109685895 0.0
120 2 3.141310862904858 3.239337811065492 0.0 -0.02534021814290701 0.04008203828690715 0.0
121 2 5.596123776030445 5.916816841510583 0.0 -0.0462189861089542 0.045960442105793434 0.0
122 1 3.4536905007219376 18.12858776719417 0.0 -0.10776722936256466 -0.010639771618653033 0.0
123 2 12.891714160536349 4.530334244325365 0.0 0.006753811380532298 -0.07833268140417296 0.0
124 2 16.448602860305815 13.066030684289379 0.0 0.013768362732809495 -0.01704216075829492 0.0
125 2 3.8914252454761407 19.73253882330483 0.0 -0.1004344586445845 -0.006785109971545853 0.0
126 2 4.838833523248098 3.9346212508854674 0.0 -0.036717743595515634 -0.023488399549681307 0.0
127 2 1.5026515977723265 6.909013434571512 0.0 -0.1075557564217532 0.04780334165596763 0.0
128 2 4.40516612237351 7.600063503466597 0.0 0.022854372409303637 -0.04119642007945387 0.0
129 2 18.552922923871908 13.518094958742545 0.0 -0.043493297703798846 -0.03769515443150313 0.0
130 1 11.408484345035381 14.809496994605325 0.0 0.0599198394957073 -0.1500979907161426 0.0
131 1 17.60979667355688 3.3951028902029683 0.0 0.012305161452148276 -0.030958969741808316 0.0
132 1 9.62859755967379 9.53845470019163 0.0 -0.05990883056685763 -0.1180375981711416 0.0
133 2 12.260115867965995 7.4570960400872055 0.0 -0.05315384537081727 -0.0025223918467419367 0.0
134 2 13.213734872359327 18.777173972254285 0.0 0.006714192161739306 0.0310950766040484 0.0
135 2 14.871773547759304 11.34382785966463 0.0 0.04741279544902638 0.023742296487828253 0.0
136 1 12.324411439099118 2.9572367078253636 0.0 -0.07485907226158948 -0.052430850278106414 0.0
137 2 0.5231089696693257 7.729957790371848 0.0 -0.04291592823501261 0.0059832089690961205 0.0
138 1 4.512137860914363 11.161436804081605 0.0 0.02128087739105742 -0.003874414768234724 0.0
139 1 1.1377414613632415 10.247836924205025 0.0 -0.02535042115490196 -0.007692165025603919 0.0
140 2 19.535730223899055 4.1511457985320455 0.0 0.04243495092857491 -0.06273879217732575 0.0
141 2 6.929426669529225 11.085880574921156 0.0 -0.0011097253340973186 -0.06393238223170811 0.0
142 2 6.888789640076424 15.841612127497847 0.0 0.033156445940567776 0.023018551301223777 0.0
143 1 18.76696273883226 4.991999796111476 0.0 -0.05389865139961949 -0.02487784874097375 0.0
144 1 0.21870402785905577 11.959055268949678 0.0 -0.13574684162803868 0.10856100479236273 0.0
145 1 10.75119305393818 19.567759854768664 0.0 -0.07375288653221607 0.056904280705953186 0.0
146 2 5.442292209149267 13.917688928437466 0.0 0.022619678088106308 -0.0522964932924444 0.0
147 2 10.762768952586736 9.257673124225164 0.0 0.045619810050725074 0.03029157977362311 0.0
148 2 17.554570761158836 6.54839885281773 0.0 0.010271182830566479 0.045463626935161934 0.0
149 2 1.4907479450393124 8.552267732177825 0.0 -0.01818244217238942 0.08487680870263609 0.0
150 2 10.75667109817484 18.444381500598112 0.0 0.07823203112295204 -0.06600407269571862 0.0
151 2 5.992523428581926 1.056030859848658 0.0 -0.0016568382119752725 -0.10528951493315278 0.0
152 1 2.744076715468751 8.068952381445504 0.0 -0.03185358282989848 0.13650608333881273 0.0
153 2 4.460733882809876 14.6988353135483 0.0 -0.04359716185436914 0.018477399534639814 0.0
154 2 0.867032175300802 0.5661698473672688 0.0 -0.03239064224214512 0.0460501857518284 0.0
155 1 1.0480079258954729 9.540730276372548 0.0 0.009414319013375673 0.10719250582531265 0.0
156 1 14.157915665557944 13.284101559332337 0.0 -0.0368854124515355 0.18311034563670012 0.0
157 2 6.012355187842117 16.757786769377358 0.0 0.025978876589023283 -0.09413363688304571 0.0
158 2 15.37866200197624 17.195464193317893 0.0 -0.03283123285115707 0.04538373593439873 0.0
159 1 13.004188407220196 0.09932040452404726 0.0 -0.07610498815833475 -0.18340195160193568 0.0
160 1 0.3680930616756603 11.304530608487553 0.0 -0.06455703308667544 0.0117727407665158 0.0
161 2 16.178075055762683 11.82928782334281 0.0 0.03913106927882309 0.023123793947001342 0.0
162 1 13.675928923982704 19.74286975295176 0.0 -0.08148596973168472 -0.01188219842209565 0.0
163 2 9.895147686668128 5.391154087027857 0.0 -0.06800505664821112 0.04343791014752377 0.0
164 1 19.35321706298522 15.453565154878634 0.0 -0.05728238751316667 -0.11262174857514268 0.0
165 2 0.25521000786978637 3.0058683823985093 0.0 -0.04022753378744331 -0.027461403560173122 0.0
166 1 12.291035458058083 12.597263287424045 0.0 -0.1088579509738767 0.18701988941826295 0.0
167 2 13.267529054511796 17.48519233098006 0.0 -0.04110591781785607 -0.006161087029825581 0.0
168 1 1.6190930972102622 16.947538702212096 0.0 -0.08882893593114641 0.09784735809235338 0.0
169 1 17.908112333674026 19.623727841371775 0.0 0.04732196469935799 0.031040730617608887 0.0
170 1 10.129881872708856 14.55518699388886 0.0 -0.046655726977733035 0.060486365131460704 0.0
171 1 7.096736058471558 16.95058738728995 0.0 -0.06506419282355388 -0.1269409235936483 0.0
172 1 9.96754454622049 11.476135300571002 0.0 -0.04655129603559309 0.01379026026604293 0.0
173 2 0.7344129645491024 1.8507251374696159 0.0 -0.1408015108982318 -0.02592884597342386 0.0
174 1 13.644597777613068 14.60325068309931 0.0 -0.00833484705520461 -0.1740745540654544 0.0
175 2 17.749723970435042 18.52532012475754 0.0 0.03116759054994731 0.047347268116934356 0.0
176 2 11.11540436352483 8.0310711705744 0.0 0.0069225534800974 0.08090090346379473 0.0
177 1 2.1274318729478208 18.30887281126781 0.0 0.04500433115245502 0.037989285814707605 0.0
178 1 3.077267639461807 13.679081386320835 0.0 -0.03184370976984853 -0.044701822595949486 0.0
179 2 6.733818937849921 13.535455172359994 0.0 0.024460779010944345 0.023341242170737766 0.0
180 2 16.059084872087123 0.9855672416459266 0.0 -0.030398324167381655 -0.017298113412996027 0.0
181 1 19.341427962945392 12.121878677862727 0.0 -0.09126353085755609 -0.03947736967394544 0.0
182 2 0.21257902539717477 6.550084980929997 0.0 0.02444830252628827 0.06032991455482018 0.0
183 1 18.46112192530914 4.367610415033862 0.0 0.0627595857763959 0.01195447084368164 0.0
184 1 7.016311566693504 8.470880089308418 0.0 -0.07436955150291569 -0.12366552263062831 0.0
185 1 14.284772637400474 0.24702947819409177 0.0 0.011217952755589266 0.0682939733239115 0.0
186 1 7.575002658188357 8.07614630246606 0.0 0.11500709234812205 -0.03318309225186799 0.0
187 1 13.35014702168843 7.335618110591388 0.0 0.07195948035900163 0.061472409406314064 0.0
188 1 3.07817895524611 1.5144074981719615 0.0 0.09890887141802117 -0.008317850285264357 0.0
189 2 4.383787057644741 6.3787811120205875 0.0 0.019528567203131255 0.026387810783662688 0.0
190 1 9.695694253467611 18.812840821127157 0.0 0.10630388689518151 -0.02149815567848841 0.0
191 2 18.896603410924463 17.49557181000679 0.0 0.040328245990811674 0.013203812767068222 0.0
192 2 11.067249667867353 11.470650010863466 0.0 -0.08424984134322662 0.0670997763016971 0.0
193 1 14.00537747168081 9.052239070474274 0.0 -0.03171425843792635 0.10981089199404076 0.0
194 1 13.074381512482097 6.726985723568602 0.0 -0.1387936456656154 0.09077480038828142 0.0
195 2 1.7708801412590187 19.356744385463287 0.0 -0.030437490940727077 -0.09909275878571135 0.0
196 1 18.81864105406201 10.910703075638681 0.0 -0.01108298548258112 -0.03220973005583848 0.0
197 1 11.54668613506492 16.173605327842957 0.0 0.16585127383804305 0.06645174590257152 0.0
198 2 9.14146551052629 12.85726813480901 0.0 0.048074251778513946 -0.03204676713933722 0.0
199 2 9.550635941680484 4.192400928236502 0.0 0.07403278543362557 -0.12857168373646313 0.0
200 1 3.6560184479856828 1.1410111559096736 0.0 -0.08648033412301798 -0.06729484604126891 0.0
201 2 12.674933117588516 16.162807418146745 0.0 0.009618701138317948 -0.10336196241362326 0.0
202 2 8.354799109404926 3.6949732101600516 0.0 -0.06877578917393995 0.002303437692078065 0.0
203 2 9.925596170587367 8.331571691153368 0.0 0.13689873556560947 -0.004140431415321749 0.0
204 1 12.271365180529195 3.6117029956927853 0.0 -0.0021280272180848538 -0.10727875725026084 0.0
205 2 8.270531646646175 11.704540334774654 0.0 -0.0758564375498094 0.042763218625033995 0.0
206 1 6.39397512288118 7.991864990678511 0.0 0.0721296401083471 0.12441285635038685 0.0
207 1 0.3272495144927109 10.59799995034088 0.0 -0.07004441478637007 0.14634758026708308 0.0
208 2 9.722522149577815 17.727373732692676 0.0 0.0642900007943969 0.05736464095185787 0.0
209 1 16.230374482322052 2.0562297845493016 0.0 -0.014378555954940789 -0.08736045707373452 0.0
210 1 8.677795733606485 18.06757477940331 0.0 0.18984878070208283 0.09231297576908078 0.0
211 1 11.30468118502669 13.484206613504732 0.0 0.04952249265706684 -0.14885127271795887 0.0
212 1 1.6304230796786143 17.63198145519015 0.0 0.03654736533536142 0.08416519805672829 0.0
213 2 11.109185359850292 5.59675533300392 0.0 0.06340581327829513 0.042865510609153695 0.0
214 1 11.175649984528905 0.34091513996887596 0.0 -0.03849884642391442 -0.013923046290674888 0.0
215 1 11.83622453909242 0.19046335568499456 0.0 -0.003290010850264867 -0.04348807222944524 0.0
216 1 6.7718723092665485 17.539906556514275 0.0 0.0344858576104086 0.049085036629239034 0.0
217 1 5.425443468902483 19.080311525080834 0.0 0.13195869341627567 0.1172882166857603 0.0
218 1 3.784537906572752 17.546429830982916 0.0 0.18461183653906976 0.15640622589642506 0.0
219 1 3.112863681963904 9.217993313271297 0.0 0.029229865754043453 -0.045652155190305355 0.0
220 1 16.526037637450983 8.666482525801777 0.0 -0.1430968133243277 0.059650331511544044 0.0
221 2 9.359793593984234 1.7882894122116313 0.0 0.05084138864486418 0.002002580645908035 0.0
222 2 4.222343553163197 8.893519406034038 0.0 -0.046606009689053915 0.09963030519230363 0.0
223 1 18.79627330672449 15.823807864570915 0.0 0.004108969511763307 0.15402465971660548 0.0
224 1 13.533889486988228 12.513903033524873 0.0 0.004071380360208474 0.05516439696655426 0.0
225 1 12.472987643107686 1.1701197254792475 0.0 -0.013222250217114043 0.1790622420394394 0.0
226 1 4.381493355086682 13.613676457489802 0.0 0.11288799074135918 -0.06908003072642091 0.0
227 1 19.137263435825663 7.299388654507471 0.0 0.021650812784536958 0.12203042644871341 0.0
228 1 0.8542534822394585 3.9703253608907665 0.0 0.14621055848433887 -0.134992009395708 0.0
229 2 13.293433219239304 5.680213836559649 0.0 -0.01033723649477237 0.030832029831761937 0.0
230 1 7.689363459681987 17.22768621229225 0.0 -0.17137576703860644 0.14395745433303692 0.0
231 1 0.25466222600265365 18.764716845705216 0.0 0.009014684096284848 0.13854934034492467 0.0
232 2 10.066263351851234 0.6776330945458909 0.0 0.009120289768366116 0.016374750091862983 0.0
233 2 17.410938066534438 13.921471626539864 0.0 0.0015557109605625597 -0.039307590072564895 0.0
234 1 6.341103712490735 0.009374484186127376 0.0 -0.06877043209594073 -0.036168768537938566 0.0
235 1 6.613959999809191 5.493749296491117 0.0 -0.06879433212932652 0.07079550043047636 0.0
236 1 18.520206320065633 11.89614006170207 0.0 -0.00910988083554601 -0.05788411309492941 0.0
237 2 2.7470557001591267 16.129327945874305 0.0 0.11807832356332058 0.02918511356717833 0.0
238 2 7.676481077105175 5.780825855930824 0.0 -0.01562593626110262 0.06725509089045191 0.0
239 1 6.70222651500289 18.863276026025584 0.0 0.02153927897447607 -0.13064150909426375 0.0
240 1 19.469862625789656 18.387399084887235 0.0 0.15555228325867165 -0.044858936065839725 0.0
241 1 5.021930732950269 17.194839439619596 0.0 -0.2182982342872192 0.06049317030357831 0.0
242 2 2.6062093521140874 12.045680357087592 0.0 -0.044614528094913584 -0.0686522534396621 0.0
243 1 18.232426976653308 11.272527326251353 0.0 0.058978097623253435 0.014698430113918332 0.0
244 2 16.874003130007342 9.71064714939554 0.0 -0.040474624926948796 0.06583923569137254 0.0
245 2 4.011629633423944 15.847932696879411 0.0 0.07828957099009974 -0.06692236501502144 0.0
246 2 14.201423042652413 6.630925589796125 0.0 0.06047731024905633 -0.025489277046886097 0.0
247 1 11.175750090471634 1.0202010738418679 0.0 0.0002640214817795605 -0.02908253614837676 0.0
248 2 7.066698729574385 12.320708867194027 0.0 0.059821944605184335 -0.022720608810514895 0.0
249 2 17.848818133909695 2.256367907688144 0.0 0.03011585208556111 0.07152077784309141 0.0
250 2 18.782560492622725 6.130421261448237 0.0 -0.07184673484186646 -0.022204535826498447 0.0
251 1 10.242453402314165 7.263417201719045 0.0 0.0030958648307267598 -0.03566037032244625 0.0
252 2 10.217335431642876 13.460572803541163 0.0 0.08974926415786622 -0.021433289085888197 0.0
253 1 11.011651227458584 16.61518289975512 0.0 0.12982056380653575 0.04641695433853617 0.0
254 1 1.0169490576386762 16.618373812615193 0.0 0.05491184300514913 -0.01537935667350288 0.0
255 1 6.8594957343445655 18.218093466244554 0.0 0.06354701495791863 -0.06421109131369852 0.0
256 2 7.910643887773019 7.021261568235622 0.0 0.04290773747384092 -0.05689353333198359 0.0
257 1 15.420430199394518 13.666494585393057 0.0 -0.009475552159191235 -0.1818311057639477 0.0
258 2 4.541719190245133 5.13127696730753 0.0 -0.04352144544235427 -0.034456096079308746 0.0
259 2 13.560677688143148 1.050594048054335 0.0 0.0544933117483963 -0.0804494325584975 0.0
260 2 13.368944767046361 3.4032377848471116 0.0 -0.013490682721339336 -0.023362755479674983 0.0
261 2 2.1278520275767523 9.719188962518441 0.0 0.008095936269478242 0.034076480301192466 0.0
262 1 19.228169103952474 7.9645987567601715 0.0 -0.07825228825605882 0.07195652623638985 0.0
263 2 16.767543475351886 4.111702953669019 0.0 0.0010631818092339683 -0.034906429257195816 0.0
264 2 2.7773641026150946 0.4667355503147277 0.0 -0.017634465814226077 0.017839166895663564 0.0
265 1 14.35833825291028 17.596939371585442 0.0 -0.06999542885051675 0.03915939759597818 0.0
266 2 4.721830184531776 0.8582896083354564 0.0 0.03289484192698838 -0.0059231871750564545 0.0
267 2 7.993387572349863 9.089780429662701 0.0 0.045158395698192855 0.005713059680368429 0.0
268 1 1.922228469279783 3.346096803869218 0.0 0.024415090444962727 -0.010242150242673422 0.0
269 2 5.339322163116083 8.360079521042547 0.0 0.0639872192908606 -0.024430420439656913 0.0
270 2 12.004576045090229 18.522966949471893 0.0 8.727684278267033e-5 0.0398027107268526 0.0
271 2 6.374677000190275 14.724008577694818 0.0 0.042348468674611006 -0.0447781529670826 0.0
272 1 14.122519594985546 18.22859595634273 0.0 0.09615089116066781 -0.09086904585236454 0.0
273 2 11.701688298092254 10.230815707010471 0.0 -0.025705019438426048 0.04061246794500606 0.0
274 2 0.7900000168393859 14.207136241456855 0.0 0.01981418711962627 -0.01413345339533926 0.0
275 1 3.2091934275609657 8.566103727380986 0.0 0.01595446598230216 -0.0029809996775361134 0.0
276 1 8.907107168832919 0.8180816728999757 0.0 -0.07595309946319118 0.047053485958258784 0.0
277 1 17.226137346144107 8.649558941904955 0.0 0.1312482851523139 0.01711389472757305 0.0
278 2 0.0764585294834004 13.098721218183654 0.0 0.036351248904546156 0.00013550377176685388 0.0
279 1 11.834808866143575 0.8732392458043077 0.0 0.029958223293345063 -0.05474345250499137 0.0
280 2 9.063270763892579 14.139018932430544 0.0 -0.003500236436362365 0.02055314077621326 0.0
281 2 7.984136848849877 10.341316940689136 0.0 -0.049821074589090554 0.10113946841166506 0.0
282 1 8.290794882027766 8.040298135895585 0.0 -0.12522031471754588 0.07306654825294455 0.0
283 2 1.896165911934547 15.229856551600594 0.0 -0.0396169578263293 -0.016200400425851254 0.0
284 2 6.348300236900242 2.2892799918464735 0.0 -0.048948973708555145 -0.009767226758736145 0.0
285 2 9.400011921459882 15.377485359019301 0.0 0.01656692260106457 0.14812405803826256 0.0
286 2 15.902177730540673 10.60580298115659 0.0 0.07525554871921845 -0.002510983116881969 0.0
287 1 18.83429247092931 18.639989604903718 0.0 -0.04021319764716436 -0.014085637712693224 0.0
288 1 3.9622809766271745 9.927880793946464 0.0 0.03093895523465846 0.044455510231697797 0.0
289 1 10.037725281589616 6.547067058559835 0.0 0.03540512605346046 0.046302395672325615 0.0
290 1 8.80709555036646 19.303629004568055 0.0 0.018955597188355492 -0.06790230857539135 0.0
291 1 19.555751430958036 0.43511716462151806 0.0 -0.13223953114189357 0.0156424391104111 0.0
292 2 13.617499540987161 10.860370604853388 0.0 0.04527959508203845 -0.00687828694520032 0.0
293 1 3.854325672916704 11.066139489809162 0.0 -0.16660142851912016 0.05160294134085348 0.0
294 1 1.9331097432039361 12.923301258178194 0.0 0.03140872658996858 0.06580075935633525 0.0
295 1 2.2586903686549844 6.1103741572887635 0.0 -0.018564793461346023 -0.11161220315720853 0.0
296 1 18.123914228481464 15.85598326845834 0.0 0.10047667566972146 0.011075740262972604 0.0
297 1 14.670532470608906 8.932417698096824 0.0 0.09625898404855061 -0.10004133937751654 0.0
298 1 0.9259368267915062 10.91096014382465 0.0 -0.029747022112553347 -0.0579909930440342 0.0
299 2 11.925331495176184 17.229671551222257 0.0 0.06398080655331771 -0.007072287980931848 0.0
300 2 7.518960386949601 2.7739149683721047 0.0 -0.04653021128254537 0.0663233835129657 0.0
301 2 1.871864899605656 1.2606269531757925 0.0 0.028283265169137067 0.01899064355706881 0.0
302 2 2.0202952055207013 13.997246158581603 0.0 0.001999435307891999 -0.0035170040634922026 0.0
303 2 1.284153361797798 12.00220211531015 0.0 -0.035463897003387396 -0.006438498328555245 0.0
304 2 15.705162572977416 18.61631273260161 0.0 -0.10919792836960594 0.0468165061652705 0.0
305 2 11.215505733002198 6.799764218698683 0.0 0.03628945987692941 -0.026770936417426196 0.0
306 2 5.881705135252955 4.666023629575834 0.0 0.05401409824468764 0.02624371673659484 0.0
307 2 0.6988099330245024 15.547998726251178 0.0 -0.017573108556568278 -0.04603973513729221 0.0
308 1 8.632527972464004 2.6106672045997112 0.0 -0.11153594725730435 0.07092264545241156 0.0
309 2 9.177167668056457 10.737390938476977 0.0 0.014227839576115321 -0.004150779313783744 0.0
310 1 4.018360052002298 1.7228867336321223 0.0 0.03651505020216627 -0.1434890959670316 0.0
311 2 4.293111471474213 2.8139859715590054 0.0 0.02168505712282364 0.07567522460021966 0.0
312 1 0.9104115810154377 18.650499658710373 0.0 0.02306381357189707 -0.06441070089484893 0.0
313 1 7.379041994119309 17.810473392790538 0.0 0.04742493372498582 -0.044006601748832655 0.0
314 2 10.644202738070865 15.551736378934446 0.0 -0.028437987788623408 0.08749089752184569 0.0
315 2 2.353456003473155 2.348704225138578 0.0 -0.007627291620877568 -0.034007518580767684 0.0
316 1 14.006475340402359 15.200350142994118 0.0 0.09675563980582408 0.015837448370378183 0.0
317 2 3.391473916335609 4.437807831814902 0.0 0.03606774425297391 0.05956954983858856 0.0
318 2 13.056903820733972 9.710746614147775 0.0 0.16372939468390557 -0.042772672389987124 0.0
319 1 18.8257924054807 8.522215748591915 0.0 0.03256233185996774 0.10849847475634748 0.0
320 2 7.8304018738637104 18.808028380104954 0.0 -0.021526640788106566 0.043824056180558096 0.0
321 1 5.232488033270085 9.483448468457015 0.0 -0.06573248140662531 -0.0015378922055162981 0.0
322 1 12.168140979019364 6.129150038922285 0.0 -0.01635314651431591 -0.14030418857104907 0.0
323 1 9.118653364415996 9.058595457853158 0.0 -0.2243308977045641 0.09160021636992244 0.0