ITEM: TIMESTEP
0
ITEM: NUMBER OF ATOMS
400
ITEM: BOX BOUNDS xy xz yz pp pp pp
0.0 19.7609 0.0
0.0 19.7609 0.0
0.0 10.0 0.0
ITEM: ATOMS id type x y z vx vy vz
1 1 0.3178668872729459 19.465964723179294 0.0 -0.11988786328319943 -0.08032806733340155 0.0
2 2 9.531951090260169 14.016268237704084 0.0 0.030542014513738905 9.835016692354769e-5 0.0
3 1 4.43250725918521 3.0930256557888427 0.0 0.03663928511829937 0.14982328297590441 0.0
4 1 3.4087429532308784 9.170905431946496 0.0 -0.032566531495560505 -0.14187688669571494 0.0
5 1 10.4742766137667 6.956229299921686 0.0 0.027435833668438405 0.06934113072515372 0.0
6 2 14.332690046103576 14.49912235113936 0.0 0.0008513260843842606 -0.037338664346304534 0.0
7 2 17.350057362525007 9.895059955190527 0.0 -0.008424802504514599 -0.03844572117940854 0.0
8 1 6.059897945061458 11.20734126048576 0.0 -0.1158912675310624 -0.039474139397628026 0.0
9 2 1.1971810565449221 8.276532663988222 0.0 0.01590153941849499 -0.0643550474429379 0.0
10 1 8.03195303369136 17.53352089065813 0.0 0.08682639210222351 -0.01930812076143103 0.0
11 2 4.490814677839878 1.995926426117497 0.0 -0.02525745806526316 -0.10479277432345155 0.0
12 1 3.91385914970587 3.5221758404314807 0.0 0.01965604026021238 -0.0031828605366050885 0.0
13 2 17.908789564144577 4.381730129717332 0.0 0.07095525192679836 0.06356115306121654 0.0
14 2 5.790388336961064 19.406775023405352 0.0 -0.008001856782088198 0.0443752575665265 0.0
15 2 12.97169522393447 10.57641900129294 0.0 0.005443183672171813 -0.06351724762678788 0.0
16 1 13.019262564228452 12.435634114383728 0.0 0.10969788109707551 -0.0239679049815867 0.0
17 1 14.314894802433948 18.262424878711453 0.0 -0.10051860094402597 0.10777115039387192 0.0
18 2 4.765619011612631 5.416575417749298 0.0 -0.00817454989751729 0.007508538605535373 0.0
19 1 0.792985563372966 1.842976035671616 0.0 0.09689072563073009 -0.04807431087044706 0.0
20 1 12.833620773173104 17.1008222908387 0.0 0.04271109636425691 -0.04057768702366938 0.0
21 1 2.941159758260148 7.806582804993086 0.0 -0.06717182039325255 0.05854603579341195 0.0
22 2 18.117402495829264 5.607091644845317 0.0 -0.009817032948168852 0.03294976110381913 0.0
23 1 5.699648919030649 6.024630629980454 0.0 -0.0055210183765163 0.03775975767996719 0.0
24 1 19.575602648044256 15.015382676637465 0.0 0.0712893939121111 0.026433859352355125 0.0
25 1 13.371157216339924 7.9510558973258245 0.0 -0.05073426439273118 0.047807996589217486 0.0
26 1 12.282577472798156 17.472935156511234 0.0 0.09691696305473672 -0.05106936928738506 0.0
27 1 3.7853695316870284 2.8597814477552106 0.0 -0.07162017636784888 -0.08841962329750958 0.0
28 1 2.315052464340479 11.194602728189517 0.0 0.005868566369979506 0.016978170265724825 0.0
29 2 16.044099017949353 6.354594528378582 0.0 -0.08296661209330336 -0.055976527009621906 0.0
30 1 3.364362244321048 2.3234552386723357 0.0 -0.006765843767982878 0.1141108318657581 0.0
31 1 3.94896153509407 0.4131903007360683 0.0 -0.071407635365664 0.04557367294230389 0.0
32 2 15.980831928075618 16.387461137009296 0.0 -0.017486477098015128 -0.05372299780163568 0.0
33 1 0.6844894746242632 3.6087010542612803 0.0 -0.04153070401219669 0.053032367296525794 0.0
34 1 6.154768416874208 13.282737897948845 0.0 0.09416441217938215 0.01787031473411575 0.0
35 1 17.54514613853721 13.52721400723206 0.0 -0.06042223974193434 -0.0031962309082519185 0.0
36 2 6.1168678028007335 3.7670571439429703 0.0 0.07453533984109757 -0.02677807431924866 0.0
37 1 3.884472697589233 6.078150659001184 0.0 0.024361971197248276 -0.04133974670947329 0.0
38 2 16.86637317589919 17.32543471040343 0.0 -0.01417396396742579 0.040649286984061644 0.0
39 2 1.4190126990515781 2.767809881132934 0.0 -0.0870530342556789 -0.062236030229120345 0.0
40 1 1.741911622955594 12.99988041028403 0.0 -0.037316094211068254 0.05037012424548368 0.0
41 2 6.822497857511733 8.041861964721106 0.0 -0.06013724048946786 -0.018961357281691238 0.0
42 1 13.613482892847287 8.56613554831463 0.0 -0.06617397951005223 -0.09245471414464347 0.0
43 1 13.90016972769991 9.18510326595024 0.0 0.0601197809594964 -0.05617293993841457 0.0
44 2 7.434949852287665 1.0380754598574002 0.0 0.0145727354182338 -0.12123657640446203 0.0
45 1 2.7930195799548945 17.699700132457515 0.0 -0.15917708151105492 -0.022521732184498277 0.0
46 1 0.04622834578737629 5.665075033112902 0.0 0.10181650761701898 0.023522831547498874 0.0
47 2 10.979333012815227 10.462194171953858 0.0 -0.04315411591139609 -0.06502805991133392 0.0
48 2 13.675041627560006 0.893914776749725 0.0 0.1323038016191579 -0.02973738342511183 0.0
49 1 5.143449528292798 7.757435893359365 0.0 0.029790854746514397 -0.03782512765027789 0.0
50 2 4.805572844820434 4.148863610137252 0.0 0.0735692717616802 -0.028516824745973605 0.0
51 1 8.942291257886945 17.783472214175145 0.0 -0.1217739102785879 0.019390313089878822 0.0
52 2 10.57972048856587 3.2091922628152547 0.0 0.07136711061145493 -0.013470049117016847 0.0
53 2 9.295562841125335 0.7214279370474329 0.0 0.08399186828192637 -0.08390656940647731 0.0
54 1 8.802174456691239 14.894834893444328 0.0 -0.009805536674832822 0.0011565684055523 0.0
55 1 2.5565157092477677 11.908748500886716 0.0 -0.00283795378970775 0.012003326170206547 0.0
56 1 3.033583451743529 7.135086307192912 0.0 -0.02224218699345504 -0.12524459122093137 0.0
57 1 14.063541133634581 10.510623308370876 0.0 -0.07471074960586316 0.054908360123500484 0.0
58 2 6.004903976658536 16.22315040747219 0.0 -0.03923386073447856 0.019016069942535168 0.0
59 2 17.555949750330402 11.35581516290221 0.0 -0.0818639317444001 -0.08879006819894071 0.0
60 1 7.313610010973546 12.853800068728123 0.0 0.017668063088619592 -0.09326982648940321 0.0
61 2 11.718095815360792 8.473590033061061 0.0 0.03962662897148058 0.0865211911339911 0.0
62 1 10.051420725138648 6.460500170009274 0.0 -0.03224778557123718 -0.048632530511978286 0.0
63 1 18.979130687657797 0.539678059428493 0.0 0.05230454996846159 0.07833808185894116 0.0
64 2 11.137232074047612 17.47059573120044 0.0 -0.011996960603995946 0.09867556697975277 0.0
65 1 16.273152095968726 13.237109866528893 0.0 0.003474197473319805 0.1840810684941669 0.0
66 2 13.880456249367425 2.148229940556424 0.0 0.06213578093565016 0.00022222490541490728 0.0
67 1 1.3079631345328135 18.71977899935943 0.0 -0.07088593033138213 -0.1031681946214578 0.0
68 2 16.871014019270675 5.232793721680988 0.0 -0.061613578726551016 -0.10445123336928959 0.0
69 2 2.094606879011977 14.096157098377901 0.0 -0.01898716775761018 0.004308096294822603 0.0
70 1 16.367952473949426 13.947376518521372 0.0 0.1995063078770277 0.08388618563622915 0.0
71 1 19.396586788434806 7.638889170824752 0.0 0.13406551312008605 -0.03223228667427329 0.0
72 1 0.037139958663120684 3.8034411620376205 0.0 -0.09586192200400435 -0.02884236466316233 0.0
73 1 18.392716119912333 9.457668455596192 0.0 0.1527811853495884 0.06930408408169723 0.0
74 1 15.48453166372106 14.330122322771867 0.0 -0.026879815202439216 0.023869777302056586 0.0
75 2 6.499694651063648 18.32832425482172 0.0 -0.0013213370590238849 -0.028364610599426708 0.0
76 1 6.215247894465419 12.088656875167285 0.0 -0.1384675040607501 -0.014168751273714395 0.0
77 1 13.587578490918375 11.448254750438084 0.0 0.041028041417795154 -0.09440860472892071 0.0
78 2 0.3181983678144287 9.179425286209591 0.0 -0.009343472892850748 -0.02049648962041366 0.0
79 1 7.066417172551863 12.21435684384519 0.0 -0.00227497963936304 0.004763603832803713 0.0
80 2 18.635427862296336 6.844030787603534 0.0 0.08463486121209114 -0.07041259486652653 0.0
81 1 14.410332981380288 9.646759537788759 0.0 -0.008003490698707844 -0.054097062116909796 0.0
82 2 2.8152469377428835 10.172578355695336 0.0 0.09787804662477037 0.08230351127688773 0.0
83 1 17.963257523519097 8.933052774003947 0.0 -0.06116225770908048 -0.17981711853177973 0.0
84 2 15.346776364961379 12.660201781765661 0.0 -0.040698142590858674 0.010635463197725136 0.0
85 1 5.535187493667216 1.652553106376903 0.0 0.03870136056545272 0.03828329628741304 0.0
86 1 12.374256326068888 12.219300678590383 0.0 0.10859042621860898 -0.032255011146676726 0.0
87 1 19.647204474895894 6.330181212630694 0.0 0.13455963877933372 -0.054497405029767555 0.0
88 2 15.222130096717065 3.926787537373457 0.0 0.04001864291043691 0.05773527748380848 0.0
89 1 11.012830397834312 15.840353679835927 0.0 -0.07213405765900056 -0.06333913925484788 0.0
90 2 14.734603012761129 6.312118802314308 0.0 -0.03509711852367345 0.005001393510887591 0.0
91 2 9.24857186253888 2.8315742415221488 0.0 0.001233496469826423 0.08819791153557949 0.0
92 1 18.214571545732344 13.710724296696934 0.0 0.07431393388135353 0.10756861161769748 0.0
93 1 7.787711590911875 12.376120342188656 0.0 0.044990430322091365 0.004670903067518256 0.0
94 1 0.8554366798943692 18.1868316085002 0.0 -0.2415526198809922 -0.00809036784637483 0.0
95 2 0.7378369610304694 15.652188598176117 0.0 0.016328904129056847 0.03175988678740845 0.0
96 2 10.020248860559079 18.09582516255379 0.0 -0.01586548212676022 -0.0422317275097468 0.0
97 1 2.62372715008802 18.38962209371465 0.0 0.027292005960278205 0.051924933953182054 0.0
98 2 16.035008671097522 18.467310047671276 0.0 -0.051215280292090215 0.020585976407985318 0.0
99 1 12.757195584578902 8.18885111439844 0.0 -0.14583020015860215 -0.08760661851943072 0.0
100 1 7.64513611510467 16.292238557888425 0.0 -0.08299120398083099 -0.05063812726239127 0.0
101 1 0.09501756568377819 8.119130882032204 0.0 -0.03414258017052121 0.0690700722235918 0.0
102 1 19.41976757479177 14.317593423096033 0.0 -0.06929293634812464 0.1296494232876272 0.0
103 1 8.307811815957143 18.14493295896114 0.0 -0.017616132746865066 0.08976285648804114 0.0
104 2 18.384306914775692 2.2057882286184114 0.0 -0.02647876036743466 -0.02496691209040822 0.0
105 1 16.859995854750917 4.0863036609832255 0.0 0.0888175480239812 0.1104307401031789 0.0
106 1 4.788177504954004 18.11840985047758 0.0 -0.09507069509341255 0.03372859598838389 0.0
107 1 0.611531881839054 18.808456228704692 0.0 -0.056157408577907186 -0.11954604792727706 0.0
108 2 9.081782997625634 18.90761779060129 0.0 -0.07342235657766483 -0.006326814591231409 0.0
109 1 1.8230689046051933 10.738924700979306 0.0 0.059689727279506576 -0.11441468203445568 0.0
110 2 13.07092619232625 4.340290738705037 0.0 -0.027244759091980784 -0.008822464522484742 0.0
111 1 17.922271808037024 17.75050874970927 0.0 -0.0263332903508082 -0.07807367840572198 0.0
112 1 4.1823303517615 11.182745068648147 0.0 0.10336240081733658 -0.05200388994008814 0.0
113 1 9.41732107395602 15.132241980067496 0.0 -0.03248876933850935 -0.08674591666723083 0.0
114 1 16.9976862230676 14.189657612164114 0.0 0.11847086477288861 -0.002828551165491569 0.0
115 1 7.89441584562877 5.8683675186730735 0.0 -0.05316741503702764 -0.02109454000878682 0.0
116 2 19.522236227921393 16.345996379579095 0.0 -0.041495514981606654 -0.01401460093481565 0.0
117 2 10.913283811710501 4.611012626830106 0.0 0.03932954261877834 -0.027636785205768913 0.0
118 1 14.441481058763484 0.06414260300558501 0.0 0.03565699528214741 0.19235710250014607 0.0
119 1 2.9089155440182997 15.034661351481422 0.0 0.026850176519131543 -0.06894637511845578 0.0
120 2 14.450492164301155 7.835705440951978 0.0 -0.010597916728232083 0.029737156587853735 0.0
121 2 0.2541125406346945 11.234608197357876 0.0 -0.02869971559977183 0.10741411465489985 0.0
122 1 18.980635787621054 12.559030251218553 0.0 -0.03303975066100783 0.06534377544420558 0.0
123 2 2.0038761561907488 19.621073802666803 0.0 -0.002257363372654571 -0.1588574574399896 0.0
124 2 16.2231859305134 3.1551365068163957 0.0 0.028603575896088383 -0.01059076775719298 0.0
125 2 2.377409151835028 8.747187642828813 0.0 -0.0618119758419087 -0.11527045750311622 0.0
126 2 11.080683055412514 6.013823031520898 0.0 0.051789171149899234 0.012425181025841333 0.0
127 2 7.34629791177622 6.896778333078989 0.0 -0.017152000365462276 -0.038264988163757695 0.0
128 2 11.107465255808037 18.7303341461081 0.0 -0.05812029421010367 -0.04698678471542077 0.0
129 2 18.466857199697124 14.85978345983278 0.0 -0.021926136207180955 0.00950123473628847 0.0
130 1 2.3678633864212455 17.197415821947384 0.0 -0.0268757550535369 -0.03381672358385986 0.0
131 1 12.597005857081959 7.523825591409297 0.0 0.16572656106798322 0.10975156995888302 0.0
132 1 17.63936022080033 12.423913900743123 0.0 -0.01284722768513971 -0.0026151470344254837 0.0
133 2 17.256929718358876 18.603863680534737 0.0 0.02246051554180091 -0.02291993234358134 0.0
134 2 8.43265800539662 9.347414176908163 0.0 -0.018019089102189335 -0.0007385941088570331 0.0
135 2 16.88782784208869 8.717859069022165 0.0 -0.030071116212825245 -0.013953133795809453 0.0
136 1 11.362914779202711 0.08226787781515071 0.0 0.0565424638599244 0.08928237796609732 0.0
137 2 11.899695627005238 16.471151956711306 0.0 -0.045466813537572856 0.04453744504004076 0.0
138 1 2.8677789989571707 1.8676482308952702 0.0 -0.10481729071047674 0.006424519226462541 0.0
139 1 3.6602851403274577 5.435648594523324 0.0 0.14153564485926642 0.08235538673459225 0.0
140 2 10.526320970204091 9.303565642225967 0.0 0.0687977824332167 0.017126613834846288 0.0
141 2 6.208201124615945 0.7844978476696036 0.0 -0.05168430785506146 -0.11109209117330954 0.0
142 2 2.818319730535624 13.044881043701023 0.0 0.04992492920820977 -0.0236736502179815 0.0
143 1 19.31692639042972 1.6812381691039706 0.0 -0.06062643958508104 0.007869284087235652 0.0
144 1 10.367462471961401 0.8848106161357071 0.0 -0.05389911822630055 -0.0015117871055519397 0.0
145 1 10.115109667203146 2.2108866469352537 0.0 -0.010848592888415836 -0.09976341027498307 0.0
146 2 18.994571286672308 17.449988893919834 0.0 0.028806413690073085 0.0791172215371203 0.0
147 2 0.06837016713918768 13.286092045320576 0.0 0.01695133740999812 0.029754707988911548 0.0
148 2 1.8251733001802608 1.4814614424487758 0.0 -0.025938377944962385 -0.058779411974557605 0.0
149 2 9.427685245724305 8.639965558543695 0.0 0.004364732362754478 -0.036005825042288546 0.0
150 2 6.141396703781713 10.019413500632389 0.0 -0.029297636504797577 0.01946207021881867 0.0
151 2 2.82350368314007 3.413545157429744 0.0 0.0387113200124131 0.0022566643183744364 0.0
152 1 4.7396615580542845 10.851815364450681 0.0 0.22266493795029127 -0.0001758949754068205 0.0
153 2 11.515300167965911 7.243917145273625 0.0 0.02697107934518263 -0.0036940655565576956 0.0
154 2 16.409468003623907 10.859049451892409 0.0 0.012039686125925665 0.05357870870228068 0.0
155 1 18.661522212152743 13.17591551368246 0.0 -0.07046366318389466 0.04725648645288342 0.0
156 1 18.30052907491661 18.31164568244561 0.0 -0.06553248974830272 0.05840206267707145 0.0
157 2 5.502509072030575 14.152963448157779 0.0 -0.05011727068037236 -0.06455535288916844 0.0
158 2 9.455304732068615 7.394445718549358 0.0 -0.04417909352255751 0.050102720573474493 0.0
159 1 13.047100717384003 16.460786487951815 0.0 -0.08618770365658968 0.08527348235145833 0.0
160 1 3.8896807186161175 1.08225716149164 0.0 -0.04804976834195847 -0.004189529075939429 0.0
161 2 8.501408717264054 3.833148206536152 0.0 0.018206061444256152 0.08344413294167209 0.0
162 1 8.454823972266775 12.113445039771854 0.0 0.07411383182352427 0.014888561330649348 0.0
163 2 15.152069499817465 15.423633438748166 0.0 -0.1046656056753393 -0.0527923072718913 0.0
164 1 18.240302199589653 10.507777570258778 0.0 0.005866634856712823 0.10274965025809844 0.0
165 2 7.3066977622439655 3.5044127349294487 0.0 -0.03849686411157855 0.0010636847259756486 0.0
166 1 1.6684202944778024 15.108155636860218 0.0 -0.0840398432144052 0.033917652951477126 0.0
167 2 14.945231257866954 1.0636062480988921 0.0 0.026367075677046336 0.05535396540933172 0.0
168 1 4.027596433972913 10.502690092620057 0.0 -0.06001671431718678 -0.06072999579405651 0.0
169 1 4.5046434830404465 0.8209919481454898 0.0 0.017841536433978518 0.06882928614914421 0.0
170 1 15.107052701240669 13.74367244184093 0.0 -0.045442360262725724 -0.0969430732809231 0.0
171 1 3.4057828809376685 8.450884990208838 0.0 -0.11121201319593607 0.03498342050693665 0.0
172 1 5.899468184690607 12.665457816543318 0.0 -0.014495731286351735 -0.02651946682152479 0.0
173 2 12.783558471863147 9.290595429049963 0.0 -0.06311938024173008 0.020164570935420702 0.0
174 1 14.842868254607902 16.477429682557098 0.0 0.03071474802583326 0.09226481678961887 0.0
175 2 16.334745876378282 15.068659935110174 0.0 -0.03823652687990359 0.0934365427054295 0.0
176 2 15.517518202272058 19.642975844166276 0.0 -0.10771297421787288 -0.030811977893301687 0.0
177 1 10.294564678089792 1.5530634069256162 0.0 -0.03201459255470837 -0.06155748408724923 0.0
178 1 6.574165327283273 12.685591150680786 0.0 0.12433026966223334 0.032959973532634246 0.0
179 2 4.923396032373396 13.077950871303466 0.0 0.05393183746540954 -0.0881888920944504 0.0
180 2 13.94406546205764 17.14870884049761 0.0 0.08748353215221663 0.019386778863284715 0.0
181 1 15.555829008822458 11.565463983970755 0.0 -0.14830577507151949 0.05898965718903743 0.0
182 2 0.8194334428623835 0.6784409697545054 0.0 -0.05836056997126984 -0.006203008967823115 0.0
183 1 8.408372028655833 7.097848716522862 0.0 0.028102331578281962 -0.11565718498798779 0.0
184 1 3.4733792469638805 1.632911620221288 0.0 -0.01415930507054937 0.07052718094653763 0.0
185 1 7.939767679529452 18.723354690799532 0.0 0.07622843524962898 -0.11474183920031253 0.0
186 1 1.964138139534483 18.521676295944864 0.0 0.16399469043302478 0.032608070796014736 0.0
187 1 3.5493815296906543 11.007051850781378 0.0 -0.008389764130542442 -0.0020747555500860307 0.0
188 1 1.7120257757714181 5.1936494509025275 0.0 -0.0624184439064843 -0.028075647025300177 0.0
189 2 6.031707788843686 7.068123455358801 0.0 -0.10931161243188936 -0.005494893850714604 0.0
190 1 0.1932109181730301 1.560390925091711 0.0 -0.02842613659823684 -0.16356607438634801 0.0
191 2 0.9070367877831356 12.288629147218927 0.0 -0.04944213440390003 0.030537917481590553 0.0
192 2 10.189796710342314 19.566874172861187 0.0 0.069436872349657 -0.018280004254958532 0.0
193 1 1.0184557447719438 17.483028998091743 0.0 -0.06448148646529113 -0.020570174801642166 0.0
194 1 12.793998476941953 15.836368733036272 0.0 -0.021786170711405446 0.10988812583061276 0.0
195 2 9.946386920144905 5.382769136189874 0.0 -0.047291415285797604 -0.08790123193080371 0.0
196 1 17.892723027733147 15.886522896684683 0.0 -0.14823310561902492 0.0069545623207597825 0.0
197 1 14.87475281156722 11.596035220256267 0.0 -0.03156827544128597 -0.015029561383581278 0.0
198 2 14.309527579551863 4.810388138522667 0.0 -0.06620564496648856 -0.025794309428686032 0.0
199 2 1.828636916444186 16.25176220223263 0.0 0.08206651659733342 0.09327505969422899 0.0
200 1 18.856132054801684 1.2009319076219278 0.0 -0.048081713967872225 -0.12256228613365007 0.0
201 2 12.244586702864563 19.134637891633208 0.0 -0.0068093984543486094 0.01679715946281504 0.0
202 2 0.6141239071450021 7.141101492568069 0.0 -0.05820586636090464 0.0612504760989821 0.0
203 2 7.201947055670387 2.258360089409927 0.0 0.06669582838204764 0.018331037381672837 0.0
204 1 9.622232082372788 1.756243202182919 0.0 -0.012817167868265594 0.06491540836744261 0.0
205 2 16.468296149341437 7.539764505817296 0.0 0.023968722039732708 -0.060128863224312705 0.0
206 1 3.874900622690432 4.793936994895114 0.0 0.031933950139598724 0.13338017798732935 0.0
207 1 12.034918388338165 18.089724598627683 0.0 -0.020834343695060303 0.05981574129641066 0.0
208 2 17.736929537847328 7.805867390326663 0.0 0.05524213524082335 0.05788052217499717 0.0
209 1 19.52148008935451 1.0119660817842273 0.0 0.013747970833314744 0.03538859692691501 0.0
210 1 4.459621862641011 14.503927596332774 0.0 0.08173347280493257 0.07430002571872649 0.0
211 1 10.77642908367463 16.467336074592552 0.0 0.10578598702603423 0.14055078807678267 0.0
212 1 0.3771373022183903 17.25279863613534 0.0 -0.25484190506128285 0.08270816813957806 0.0
213 2 11.883613947534815 3.837253220908383 0.0 0.024090126664359564 0.012581179008883682 0.0
214 1 5.437525788759455 10.842705438291489 0.0 0.032590225794539116 -0.19960447473429327 0.0
215 1 14.540928279762692 8.958755058544568 0.0 0.07868325227061486 -0.08939659996969447 0.0
216 1 18.347901673125488 16.533005411987535 0.0 -0.09922311021516281 0.05379804106059602 0.0
217 1 7.049592257247548 16.005053503052046 0.0 0.040819325004659464 -0.006062758466723686 0.0
218 1 11.171849598500435 12.69454309360411 0.0 -0.02421935537727161 -0.050923676149383916 0.0
219 1 5.068982441055212 0.44760824095789464 0.0 0.046962713552463835 0.014133785700198754 0.0
220 1 8.147316470133028 2.776558855072972 0.0 -0.12057051264277706 -0.02442497256856658 0.0
221 2 12.655833276417212 1.7728451986662324 0.0 0.03248895698182842 -0.008702840280939818 0.0
222 2 13.161771270276455 18.163983156885827 0.0 0.01043281272997258 -0.033642414337431335 0.0
223 1 17.668555029142112 14.161905417242215 0.0 -0.007421177838497348 0.04167924557692574 0.0
224 1 19.512458135081886 0.10737816639698149 0.0 -0.07583858845284773 -0.16997543939882392 0.0
225 1 2.442553125676817 2.391347548312408 0.0 -0.06531479532245035 0.04671856283633309 0.0
226 1 7.605595034259976 18.103717502533453 0.0 0.020298479362185092 -0.03189392295945583 0.0
227 1 1.1595866132595314 10.62981871557753 0.0 0.13518550144546565 -0.03468818997015374 0.0
228 1 18.315004715002022 12.441766103041655 0.0 0.04726488956144658 0.0019012812288199614 0.0
229 2 18.768891919386235 3.440929105238741 0.0 0.041308773320547706 0.03981058413739114 0.0
230 1 3.52352228961269 13.844514978648853 0.0 0.09158153049142076 -0.13682579757060326 0.0
231 1 6.978182895737881 4.608971498531447 0.0 -0.07240597826351593 -0.004037043424443334 0.0
232 2 15.539744920535018 5.169970355915991 0.0 0.02940662471896291 0.090794590567236 0.0
233 2 5.176174160731888 15.313804791144003 0.0 -0.06998237414135185 0.10886706820011641 0.0
234 1 16.885844910521083 13.520369621299686 0.0 -0.05553982525317008 0.01832226637259895 0.0
235 1 0.9730091433012273 19.347736000110725 0.0 -0.01837318053888481 -0.032244182325356356 0.0
236 1 4.507470938199417 17.505222242640276 0.0 0.0189658181791346 0.0010620681811630624 0.0
237 2 16.49416287442148 0.7811526351273519 0.0 -0.055179092094285544 -0.011225618224041166 0.0
238 2 5.734715466506866 8.735809674435258 0.0 -0.0047306458535445964 -0.007056867381119928 0.0
239 1 5.372249423062524 18.44124447192607 0.0 0.09748238643604322 0.029530432077228913 0.0
240 1 2.81543999445949 15.743486085133835 0.0 0.021820375790865258 -0.0820583185910232 0.0
241 1 0.6251228716378531 10.220921400376655 0.0 -0.08892302129422805 0.01861526110445488 0.0
242 2 8.703200979910232 16.01338874080893 0.0 0.014554092731399865 0.003979854355689105 0.0
243 1 12.500811429364482 12.876077492712813 0.0 -0.11048242465809802 0.13852434943363412 0.0
244 2 4.45332716359187 8.701773738916781 0.0 0.07857078128102864 -0.020877827545366184 0.0
245 2 5.639082718671248 17.388679625068985 0.0 0.008792262867899461 -0.02619456982410416 0.0
246 2 13.14645268165484 14.80656618478473 0.0 -0.10374020441897358 -0.05909151024909544 0.0
247 1 18.97839024934639 9.095474179163533 0.0 0.1158848368564946 0.058436535505494 0.0
248 2 0.6398952026130891 4.738975142786593 0.0 0.05082166570676529 -0.09174742305895932 0.0
249 2 16.512326983490134 12.147241994606334 0.0 0.12451791386408377 0.025983101439168255 0.0
250 2 13.353870707158649 5.620480294205531 0.0 0.033540953092592835 -0.023951301211667976 0.0
251 1 2.9708786019001887 11.355675456137828 0.0 -0.021895252910103816 -0.0835394217241015 0.0
252 2 14.051761490174304 3.512738673099811 0.0 -0.04787641735879111 0.01836497060773248 0.0
253 1 19.167648371378352 5.868952037673139 0.0 0.08984205433461087 -0.05600744919370184 0.0
254 1 15.765619366428092 13.694541981854146 0.0 -0.05430992793492921 0.05781986362591196 0.0
255 1 6.82542810094303 13.310276604371431 0.0 0.03429813531820874 -0.03875386649548251 0.0
256 2 6.758253395036445 5.8149528204138585 0.0 0.02100857052064345 -0.02382511407014982 0.0
257 1 14.93590114135919 18.602349951453704 0.0 -0.003286493819820135 0.09706784071424547 0.0
258 2 5.903498938413617 4.941791012406619 0.0 -0.03691329026544075 -0.032769640123619076 0.0
259 2 8.245244984389034 0.04416674141687043 0.0 0.05800596945687159 0.0017017374443296948 0.0
260 2 14.108075176339538 12.38367370278693 0.0 0.02985848407250203 -0.048114398108219866 0.0
261 2 11.875643897630557 15.162216986600315 0.0 -0.03649241913801774 0.07099783614706366 0.0
262 1 18.549088871477217 8.579144626450228 0.0 0.04531513893247208 0.03996140156278492 0.0
263 2 15.183072509595236 17.521753001207024 0.0 0.055192938819105544 -0.01071039057295269 0.0
264 2 12.897108243902196 3.0243765403187304 0.0 0.02161667220553551 0.07035104277069389 0.0
265 1 0.25370739119017616 17.904299567999825 0.0 0.05871562558984896 -0.059814249307021596 0.0
266 2 11.407788409162567 1.2243705766643478 0.0 0.03311138031084395 -0.09034120209378209 0.0
267 2 15.006220973656726 2.6869441887878516 0.0 0.03968508667209042 0.027745583619011874 0.0
268 1 1.9978296481543902 12.358715492170724 0.0 0.01565156995068322 -0.003382072793063924 0.0
269 2 19.26925609106609 10.169871613707416 0.0 -0.022937531535115574 -0.09172027198809063 0.0
270 2 17.820605032347277 0.8684636949101359 0.0 0.012320149386070404 -0.0032703180705563437 0.0
271 2 16.07660029640708 9.654113600907406 0.0 0.01466912207639265 0.04771083214662323 0.0
272 1 2.1544443966670546 17.858175016797304 0.0 0.02192999358975039 0.04970507103740036 0.0
273 2 5.479127567387038 2.73317639086435 0.0 0.003916969939225265 0.10049993105918803 0.0
274 2 7.724927191066361 15.156727585951284 0.0 0.025577226521448664 0.020033299603596663 0.0
275 1 6.655966773300935 11.60167509562203 0.0 0.03399910010375524 -0.02479498722001214 0.0
276 1 1.2958611185573279 6.2867223075338305 0.0 -0.02642074319692076 -0.026731115949632216 0.0
277 1 1.6968929751959962 17.361031831284155 0.0 0.07846161476236295 -0.057499120204900146 0.0
278 2 13.45512953898906 19.389889060977698 0.0 -0.04804139100361204 -0.05602100896598173 0.0
279 1 13.775475634611993 9.866684116460878 0.0 0.12093695313908706 -0.008411419909347266 0.0
280 2 9.814870566817635 10.803047834780305 0.0 -0.023652878365025595 -0.04894069201504344 0.0
281 2 4.8303009318245795 6.665375016122405 0.0 -0.05921469558299494 0.01927327782408237 0.0
282 1 19.57176004106781 12.230358632191951 0.0 -0.05754514288297848 0.05085599280361332 0.0
283 2 19.298031763882296 18.719573728723404 0.0 0.010393435519132457 0.13115400236181948 0.0
284 2 11.704341890324237 2.578997993075543 0.0 0.0012286563766123796 0.05611866134417479 0.0
285 2 17.13926518663073 1.9529550593236895 0.0 -0.04718631340889591 0.0546479078384891 0.0
286 2 9.705221413021835 4.140566096232328 0.0 0.026499252218776255 0.05552963838568567 0.0
287 1 16.24027032611872 4.30540952974125 0.0 0.06290153006510005 0.06952587647643688 0.0
288 1 9.479764881330599 9.737183554733004 0.0 0.08337384960642537 -0.019695362839839196 0.0
289 1 15.03256798047693 9.410664638369594 0.0 -0.14684027277323475 -0.05287518117709014 0.0
290 1 3.4965195169269063 6.603161302199004 0.0 0.03229027157126947 0.016907859143225658 0.0
291 1 1.5031096517662554 18.025481130941284 0.0 0.06034066285409257 -0.006260072553560181 0.0
292 2 8.510872924973196 1.7333681427887557 0.0 0.042278926701209155 0.020267954693297438 0.0
293 1 14.236640412464805 11.217001413856188 0.0 -0.021697739299582554 0.09738306061294405 0.0
294 1 3.805138246968123 14.447672814090122 0.0 -0.013050666291344257 -0.11283941354954852 0.0
295 1 16.58326068403602 19.438122079204472 0.0 0.07724040160943083 0.06321263893253759 0.0
296 1 2.307295114192892 15.275173525892201 0.0 -0.08353497175752597 -0.06919567282395855 0.0
297 1 8.629543387305427 17.16691311033696 0.0 -0.05326923614056413 0.061196352412085306 0.0
298 1 7.843477625509337 14.071494652281384 0.0 -0.08151432034514508 0.1555526290947657 0.0
299 2 1.952249825185244 7.162762604331424 0.0 0.013856571319171116 -0.015650774875585877 0.0
300 2 15.562222307113352 8.451613944010537 0.0 -0.0018327400423064429 -0.07701122780863766 0.0
301 2 13.420169115314451 13.483726099111566 0.0 -0.010067310898042402 0.05800162008375304 0.0
302 2 0.773692945184458 14.4006825363111 0.0 0.03798834277345766 0.02107887982324864 0.0
303 2 0.06445851543248608 2.6703539367031475 0.0 0.0026480380476085062 0.07964350208629555 0.0
304 2 8.668176584068782 10.539116307499508 0.0 -0.08223234710586272 -0.05066252317482883 0.0
305 2 8.123172004063075 8.13733101814192 0.0 0.027526467196087957 0.042518132767755415 0.0
306 2 11.941810511560442 11.233590519821107 0.0 0.06300264893693013 -0.020786845948279665 0.0
307 2 17.50562916173672 3.16359069576498 0.0 -0.022086551333782435 0.07655644600550288 0.0
308 1 6.17260109981112 1.875286239124879 0.0 -0.07487322061902303 0.18962736747054007 0.0
309 2 4.024127333717392 7.5618464216909125 0.0 -0.02601461613273888 0.0033890955195665894 0.0
310 1 18.56490578876593 15.911561695290247 0.0 0.02669619208899032 0.1315274100609152 0.0
311 2 9.696682540639815 16.86266945542807 0.0 -0.09141372295019777 0.0356340983605533 0.0
312 1 3.2164832383462656 5.951142843817303 0.0 -0.16288341426894384 -0.01709318125987913 0.0
313 1 2.513165233438555 5.912360752953194 0.0 -0.0310246199905877 0.15550371735314997 0.0
314 2 6.451223902089087 15.026367706937771 0.0 0.061852560916678255 -0.05676366273727637 0.0
315 2 4.519803321829784 19.223619132991722 0.0 -0.0007639788722582462 0.16752893156423618 0.0
316 1 6.684353445845686 10.939910306075442 0.0 0.06030321765620281 0.010298258309272508 0.0
317 2 13.566438566969147 6.885386362451686 0.0 0.019917158666958958 -0.07044805753818291 0.0
318 2 1.7057770476775325 4.054804233251969 0.0 0.08744879787178049 -0.04091554302125679 0.0
319 1 2.8267061492050893 6.498709952601659 0.0 -0.1136251493154222 -0.005114091442444072 0.0
320 2 13.931298585446658 15.821635317860434 0.0 0.0036090080057176684 -0.040686913836763 0.0
321 1 12.9627568418227 11.74842674078267 0.0 -0.08961377386640938 0.03902407735416652 0.0
322 1 17.230067242069044 12.955545131447932 0.0 0.10404607452906416 -0.11482178018704312 0.0
323 1 9.583474614582869 11.850233345290915 0.0 0.16603481064179174 -0.1055325307010091 0.0