ITEM: TIMESTEP
0
ITEM: NUMBER OF ATOMS
400
ITEM: BOX BOUNDS xy xz yz pp pp pp
0.0 19.7609 0.0
0.0 19.7609 0.0
0.0 10.0 0.0
ITEM: ATOMS id type x y z vx vy vz
1 1 1.717521663344621 12.830671605007455 0.0 0.04936207416480436 -0.012107454111551843 0.0
2 2 13.755784599006235 5.396555582846527 0.0 0.004653282972029469 -0.0015745865919534411 0.0
3 1 15.008395297567002 6.515124317794775 0.0 -0.2112139577654647 -0.0893376520296483 0.0
4 1 14.843321258686567 5.221270799342886 0.0 -0.004751246816375314 0.023683294373868492 0.0
5 1 4.446507207186188 18.24746650340904 0.0 -0.09825909483874506 0.05477317633022375 0.0
6 2 5.881994001576056 12.844158917438603 0.0 0.009140255108167381 -0.04621404909264323 0.0
7 2 13.309764753898882 16.198569109003284 0.0 0.01859390491345789 -0.00512865660064258 0.0
8 1 3.225107445459078 13.439666412629505 0.0 -0.09551921833159573 0.008488304129561967 0.0
9 2 4.61322737351937 1.7984304596676 0.0 0.04038284193672836 -0.01973288936978852 0.0
10 1 13.60429411204148 10.865730026166421 0.0 -0.09105925529243591 0.020685933308649374 0.0
11 2 8.218382521705857 6.965251124415294 0.0 -0.0084408312695208 0.07113948780950693 0.0
12 1 6.487627064037968 5.065408771985668 0.0 -0.08899616408532789 -0.015162341777666538 0.0
13 2 10.159810639928326 5.019979080260646 0.0 -0.0027973247825347925 0.023138216041856355 0.0
14 2 12.11092381428996 14.440794584017317 0.0 0.021644346493278795 0.011094128138112922 0.0
15 2 6.304050088417491 19.35902438709836 0.0 -0.005230503625774292 -0.08589290825749477 0.0
16 1 3.551630568143289 12.305827693914575 0.0 0.07377227371383605 0.08526851408655203 0.0
17 1 6.282052452033295 8.156266657338536 0.0 0.008701430739694083 0.11039794137702952 0.0
18 2 8.66714716776791 3.051855940348522 0.0 0.016655088554335045 0.07740776859263242 0.0
19 1 13.50286624874906 11.537531167049549 0.0 0.03221842727933424 0.019076553473729413 0.0
20 1 8.954663972917821 1.025226749153844 0.0 -0.015008549515734465 0.10707647796018234 0.0
21 1 9.535194146653097 5.913586273646955 0.0 0.01616441800958075 0.05376946298154827 0.0
22 2 6.8004083381100395 11.041843349794554 0.0 0.04600698419951763 -0.06038253677392373 0.0
23 1 3.095386913062609 5.2945130830626725 0.0 0.025438436318345407 -0.055659474791880534 0.0
24 1 13.591537358436131 18.51039934374661 0.0 -0.0759219018710195 0.039374867703518744 0.0
25 1 12.105565328573247 17.55607555753534 0.0 -0.04839967339177291 -0.01349055854586556 0.0
26 1 2.375532158422887 12.752158124408613 0.0 0.005793616711870969 0.07320745859393972 0.0
27 1 9.584408519168873 18.88800764116655 0.0 -0.031064224694017442 0.19267598272095868 0.0
28 1 6.90200389792528 5.853065193085363 0.0 0.17782937247135563 0.15346120828999546 0.0
29 2 10.392435787677995 12.040543754394978 0.0 0.06562731690971876 0.07688542448726082 0.0
30 1 8.874026469974853 6.114636948670542 0.0 0.11140173353683032 -0.03213665738892249 0.0
31 1 18.696195016345143 5.560803673872103 0.0 -0.16174977844629826 0.00825953156763387 0.0
32 2 10.636804255105048 3.8369958614195006 0.0 0.06794408291229853 -0.03184106604608253 0.0
33 1 1.071477641222651 12.588496795448062 0.0 0.06411777222519717 0.030931587721573298 0.0
34 1 12.510282919037088 15.4411247777315 0.0 -0.029957053429093026 0.048840084918570115 0.0
35 1 4.129796057041101 5.9412212355313025 0.0 0.16903427687977343 -0.11295441677335091 0.0
36 2 19.07888465427654 19.63920165485486 0.0 0.044100426466663456 -0.021543103006512215 0.0
37 1 11.477150737981106 17.339501749867942 0.0 -0.1365775179557886 -0.12559921499537574 0.0
38 2 10.534638429593958 19.376231501266428 0.0 -0.04640224448978587 -0.04457564438608914 0.0
39 2 2.238261847211094 16.248310947777224 0.0 0.03515077329775475 0.06714281241059651 0.0
40 1 4.534638953471431 13.883106119641713 0.0 0.05278071373475772 -0.03748916630117123 0.0
41 2 1.8294967858626627 3.4336015365366706 0.0 0.04894451770936833 -0.053751030574841256 0.0
42 1 19.18793366154096 6.092593702552708 0.0 0.02134429620433691 -0.037713340810864894 0.0
43 1 3.060997781542836 15.341743003929615 0.0 -0.24930597040076874 -0.15662984018780612 0.0
44 2 10.019038343015039 8.122855800355204 0.0 0.03513312091907368 0.06567928151866745 0.0
45 1 1.6445904737480805 12.174029776382257 0.0 -0.00881207246270134 0.14010412969878275 0.0
46 1 14.026815102973206 1.8147421843908544 0.0 -0.027701566977836746 -0.04763585597689744 0.0
47 2 19.53969170576379 1.077204027670994 0.0 -0.008192474859508178 0.10622563307660836 0.0
48 2 1.109387399785596 1.1201214884850248 0.0 -0.019750393118136665 -0.009179276475417924 0.0
49 1 19.366584281598808 8.808684674875089 0.0 -0.07892760975697373 -0.014805769654352909 0.0
50 2 13.501337930432449 9.216091675073896 0.0 0.053884709108558776 0.020892278192482898 0.0
51 1 13.27709132696694 10.278363908725481 0.0 0.10190600314858923 -0.06219998809139254 0.0
52 2 17.863815688021937 3.8601418865861894 0.0 0.029385931592983312 -0.05994904338080851 0.0
53 2 10.797084907364646 7.015387859162954 0.0 0.008644299176741392 -0.023434040170602872 0.0
54 1 4.2942272570629765 13.256053670330399 0.0 -0.035567179992020304 0.037909236075833276 0.0
55 1 13.063085622233663 7.61817729193949 0.0 0.15514125015376232 -0.1320008886312326 0.0
56 1 17.501662508209215 11.539005696106571 0.0 0.0707634035576787 -0.07273667574720799 0.0
57 1 4.938358198320658 13.346218903565537 0.0 0.02070306542565292 -0.07495126371551947 0.0
58 2 12.502820567027454 11.05870296097797 0.0 0.15038403760908772 0.010579190866469608 0.0
59 2 14.581830920440428 11.369446393746893 0.0 -0.05794734450681425 -0.12990855556246117 0.0
60 1 0.3885398881009477 0.18986757341840918 0.0 0.016156655749929794 0.128223709504681 0.0
61 2 14.475468928652775 15.813653125058957 0.0 -0.024884958360613916 0.011419268514276095 0.0
62 1 17.112393042518644 16.75071329308964 0.0 0.17884192936951251 0.016226435845297364 0.0
63 1 17.320612174901743 6.49112460582738 0.0 0.006405983459139303 0.06961739729828795 0.0
64 2 6.149141609515365 7.062371408199827 0.0 0.10068612910191718 -0.04881148670079573 0.0
65 1 3.295697049919557 15.972839923110943 0.0 0.06214592358040172 0.08166343693176584 0.0
66 2 3.274712114951666 1.7510914933624966 0.0 -0.09520271741501465 0.05060726970698605 0.0
67 1 7.562833667512012 6.055453620897826 0.0 -0.07461306610976857 -0.0953243077483144 0.0
68 2 2.0533993847270016 10.522392139156075 0.0 0.04707334105619311 0.023047954725791037 0.0
69 2 7.526108102403551 15.237185351561354 0.0 -0.020732891522786605 0.028524087375303743 0.0
70 1 19.543511224159992 2.1956996961214683 0.0 0.07202746331305943 0.09364431334919687 0.0
71 1 6.491046462672631 14.881248349085778 0.0 -0.06788240655934902 0.001267122476092864 0.0
72 1 10.433031200427497 2.7255852651298356 0.0 -0.036996509588853796 -0.03899881275780773 0.0
73 1 17.560640648826915 5.860716672087939 0.0 -0.005572502508214612 -0.08487434660412085 0.0
74 1 16.88027467462033 5.988606692922257 0.0 -0.06870190793540842 0.039755351261898955 0.0
75 2 12.974312599229831 13.581019890040809 0.0 -0.013678919060515209 -0.018833695444815328 0.0
76 1 8.055411735136184 13.676636560093899 0.0 -0.10589132543223462 -0.08948360176859138 0.0
77 1 12.16681036760471 19.664971354333378 0.0 0.008713447751342801 0.06676444941147895 0.0
78 2 17.951284186311263 9.628719705488258 0.0 -0.01993549189289868 0.05263051285368842 0.0
79 1 12.408373480391612 0.5386764507378683 0.0 0.001170947173223179 0.004718390568004252 0.0
80 2 2.213617171148849 13.825578243182479 0.0 0.060434496817095465 0.020735742810892414 0.0
81 1 14.151985615886623 16.885669428668972 0.0 -0.029550617741326984 -0.007921481109492005 0.0
82 2 19.20089852804211 11.741471713249936 0.0 0.02292262218194657 0.011475915603318787 0.0
83 1 5.913850100954635 4.621932972920742 0.0 0.09843130445541078 0.0903943269836832 0.0
84 2 12.45134437557344 8.520770273345496 0.0 -0.011503056865356786 0.09499845371809618 0.0
85 1 19.064373747272164 8.206255306004035 0.0 0.009038727042126724 0.03218092406561806 0.0
86 1 9.609587447383907 16.52760536781537 0.0 0.0016864505294442449 -0.0864173366812698 0.0
87 1 0.32405909118664517 10.847613342338288 0.0 0.1939660564021497 0.03346461379438603 0.0
88 2 2.1503099845875395 17.665290178617663 0.0 -0.05047207917568598 -0.08472052999879022 0.0
89 1 17.305874570539903 12.174655254343485 0.0 0.09049319717980614 0.08369890574276362 0.0
90 2 17.36742544334807 18.148682306323582 0.0 0.01602122986219776 0.07100460138104339 0.0
91 2 10.708654847379442 16.588343467209963 0.0 -0.03779068212289715 -0.056677520836147355 0.0
92 1 18.500287183051114 4.83171970535075 0.0 0.006718027507011331 -0.1333805997429113 0.0
93 1 3.7187652323287677 12.958836135591387 0.0 -0.19493358980399844 -0.0413523256795836 0.0
94 1 3.5870967429091434 14.85498653803033 0.0 0.08251488914953163 0.03399169793801466 0.0
95 2 8.62131834212613 18.443417793863 0.0 -0.07142439302408013 -0.014389595635876514 0.0
96 2 12.04927835269859 7.225381173329969 0.0 0.03252675165327594 0.029928520898532443 0.0
97 1 13.393327402613478 2.009355694669529 0.0 -0.0019112558554419364 0.08056455439230804 0.0
98 2 4.666929522141531 12.249677546360255 0.0 0.014520400963099103 0.09363817332149393 0.0
99 1 18.912265202414982 16.083247018792633 0.0 -0.13420998459966763 0.08049696344385811 0.0
100 1 3.8477667514511955 6.534642756163147 0.0 -0.005319204383185368 -0.06671566817552499 0.0
101 1 3.422466603489222 6.008806265610235 0.0 -0.04762893184425398 -0.0012124565430443725 0.0
102 1 5.074867018135436 6.812691018225927 0.0 0.1279466877866014 -0.0792374907604665 0.0
103 1 10.69769387134685 18.293888984897624 0.0 0.039927214815690226 0.0007770804251033841 0.0
104 2 7.5728112145926785 19.15649969532981 0.0 0.050766186134473826 -0.07279096252483178 0.0
105 1 0.458618796598652 17.701854892585914 0.0 0.07449660538413314 0.09089214188201664 0.0
106 1 6.708000181362649 17.09722949589383 0.0 0.05398643381536716 -0.06443586665047844 0.0
107 1 18.43224101810963 7.209479140381057 0.0 -0.08039902826978051 -0.025066135231701345 0.0
108 2 17.823209964463835 15.867539557889389 0.0 -0.013051939096104092 0.08012945590598221 0.0
109 1 3.146781194949382 18.150821352076417 0.0 -0.02098313535943641 -0.04266150477913535 0.0
110 2 10.020800974925653 0.7362373450226941 0.0 0.0034684648102027756 0.0010362041382335977 0.0
111 1 12.706347663744324 1.7675974798297256 0.0 -0.08344647624696559 -0.04495025070551534 0.0
112 1 9.226333726672868 13.086309350954679 0.0 0.038357946153376316 0.020731735003181977 0.0
113 1 16.773277492290713 19.11222531131818 0.0 -0.07165833242817436 -0.08006267869538616 0.0
114 1 16.322877156511296 18.58216721617101 0.0 0.0522207958042675 0.08693084258100242 0.0
115 1 10.196173371125315 6.110744353087188 0.0 -0.038971819546529125 0.05126159442987077 0.0
116 2 12.791513546911979 12.358095907650359 0.0 -0.02978601199432771 0.03514953249078863 0.0
117 2 11.202515151450816 10.768091473391806 0.0 -0.00418675118428262 -0.15940847053441146 0.0
118 1 3.3334903422324547 14.147521019597601 0.0 0.006482509140410436 0.047689513746498505 0.0
119 1 5.542746497459665 0.4138509209685347 0.0 -0.04264051494031416 0.0006396161797829862 0.0
120 2 8.25762016539775 12.571359905575758 0.0 0.10073819861544075 -0.08726292475317673 0.0
121 2 4.452905263088725 0.5465586358827035 0.0 -0.021541921823807438 -0.11480407849094304 0.0
122 1 16.225333448413608 11.460297801239358 0.0 0.08950699417787371 -0.046318351706312266 0.0
123 2 14.01089711343063 2.9463796647889113 0.0 -0.053131371060078446 -0.0012664128063365626 0.0
124 2 3.2122767423076892 17.055553416995892 0.0 0.010384668022617682 0.039374073493827634 0.0
125 2 5.44819187886459 15.312827258373275 0.0 0.011819131791010674 -0.14503886210799183 0.0
126 2 18.301796952011042 10.850797641227201 0.0 0.05108856040287865 0.058683944943272344 0.0
127 2 12.748566714554556 2.872378551466409 0.0 0.0005118110520509246 0.0019522596736945594 0.0
128 2 7.590302685390555 4.925026160737254 0.0 0.07476113147226351 0.06241116127113766 0.0
129 2 19.533643999061848 13.846745596145931 0.0 0.04497602628374287 -0.010444349412356316 0.0
130 1 0.6555955978665997 6.585588693704509 0.0 0.12278191868479167 -0.1722834361146053 0.0
131 1 15.199172577349707 12.311052104940712 0.0 0.01966359217210434 -0.010373879686176807 0.0
132 1 5.423549526345605 4.129490567192834 0.0 -0.08134335872865092 0.037002506808004494 0.0
133 2 18.701234894871508 14.943613828601844 0.0 0.03715374961016599 -0.002987333343839562 0.0
134 2 14.334391600847104 4.238022321941793 0.0 -0.005384289321838006 -0.0033940835381799316 0.0
135 2 3.1471878257732566 9.395539156281362 0.0 0.0725608408717849 0.04548340654985515 0.0
136 1 4.797071093031092 9.766787155566684 0.0 -0.07911306673901568 -0.00416860523569938 0.0
137 2 12.023718734682024 5.967094516847735 0.0 0.027859656418186482 0.05235338992933852 0.0
138 1 3.9415045483192475 16.181078985280745 0.0 -0.01043721695389406 -0.08845575891996528 0.0
139 1 9.566713260741565 15.180631602541974 0.0 -0.003126153793904625 0.026240960497523978 0.0
140 2 16.32624303555076 8.259779284628836 0.0 0.02725592036180571 0.025631078410877185 0.0
141 2 10.905986037320046 14.24843941027574 0.0 -0.0046710464208757066 0.07481831498695277 0.0
142 2 8.869553037951881 5.048311543615904 0.0 -0.0013907818772469643 -0.049298868164375835 0.0
143 1 3.7713371092448935 15.49574092678705 0.0 -0.027863023918480286 -0.1029314272000219 0.0
144 1 8.616605081481215 19.54958682542434 0.0 0.05090679006483189 -0.09171737280478362 0.0
145 1 18.674370325815573 8.772237987088621 0.0 0.03402506163443392 -0.16874810669330417 0.0
146 2 2.3082416383342625 6.075304614517776 0.0 -0.07430595097904175 -0.03645857091722182 0.0
147 2 7.624063252833332 16.51062619843581 0.0 0.002933587646704986 0.01814399775411569 0.0
148 2 14.086699594559486 12.515147748910202 0.0 -0.0698815431247271 -0.032037121800710985 0.0
149 2 18.88897364746832 3.0844757552348234 0.0 0.01652935916472461 0.014702276611337422 0.0
150 2 11.385474984668434 4.876152352397796 0.0 -0.02265196250209487 -0.002425582543601359 0.0
151 2 18.627070241756176 18.35165816056385 0.0 -0.00465217011328853 -0.008281520859308415 0.0
152 1 0.025530172227781936 8.276566305062005 0.0 -0.12471490973534899 -0.1491855662664325 0.0
153 2 12.471634254446423 18.56901129661586 0.0 -0.12431940871522919 -0.05574400831712215 0.0
154 2 5.214980184525343 7.9047513959122195 0.0 0.011699617528414174 -0.022945137231401954 0.0
155 1 0.08912722989472607 16.41641615200038 0.0 0.020013060521559368 0.007332704981235035 0.0
156 1 16.933770346028414 9.240459374339643 0.0 -0.18705396737704205 -0.08270978385451722 0.0
157 2 3.7311044314195403 19.127159644867373 0.0 0.059892758212140296 0.031086879491922945 0.0
158 2 14.748730263271186 8.847353192525668 0.0 0.048680192250520615 0.04721835790422152 0.0
159 1 9.364808472275453 12.425576692810578 0.0 0.058924068710232896 0.008626558563413737 0.0
160 1 10.921039196355776 17.67745184982564 0.0 0.11044358507345015 0.008993322226695934 0.0
161 2 1.4368478510363116 9.398991062184297 0.0 -0.061032702780513724 -0.004819567902897286 0.0
162 1 18.898595123155282 4.232806317119699 0.0 0.1487216805222258 -0.007052756325366832 0.0
163 2 5.0888010615608374 2.9774238976990137 0.0 0.06403541339960532 0.012382578724208417 0.0
164 1 14.162547227177013 7.946274116397088 0.0 -0.1197611627291786 0.08093038930322398 0.0
165 2 4.836415295828359 5.1058952730931955 0.0 -0.017794154925948127 -0.020287177415333698 0.0
166 1 7.794964003625573 3.7851096037095022 0.0 -0.04870988846915945 -0.06748990204138418 0.0
167 2 11.87168585035715 3.6991720219586517 0.0 0.023116780536542012 -0.013933579566198864 0.0
168 1 14.235612492019307 7.063330312489868 0.0 -0.11951912473065121 -0.04580449952998414 0.0
169 1 18.04292562290369 5.352977585086402 0.0 0.014258458230855633 0.04685748710244275 0.0
170 1 2.3221804173920253 1.2235685401937195 0.0 0.06340918415660392 -0.16103994728744944 0.0
171 1 19.1685028793954 17.363110873551506 0.0 -0.013395335277393845 0.047129313057752656 0.0
172 1 19.722799809873827 12.74434440347815 0.0 -0.10579763897169002 0.10183097911221822 0.0
173 2 13.478814695550804 14.85803165510148 0.0 -0.09488344848602578 0.11341012367276031 0.0
174 1 18.45558214800657 12.538212594442664 0.0 -0.026066355727769584 0.09919360735024277 0.0
175 2 10.966172851950589 9.4750765405932 0.0 -0.032975297911983975 -0.08028765657118328 0.0
176 2 1.3914217997377327 19.593011942365962 0.0 -0.04403680045607699 -0.003105088592180793 0.0
177 1 0.03076659297611547 17.134953437243816 0.0 -0.014995345233675387 0.02183963065153675 0.0
178 1 11.618792162879844 19.26766129094654 0.0 0.14047720669745917 0.03687774166387275 0.0
179 2 4.277819532406769 8.773319093859968 0.0 0.03861509237298562 0.018837051503390358 0.0
180 2 7.865012998008184 10.466950445326688 0.0 0.07201165196153055 -0.14133690690656542 0.0
181 1 5.108434233243776 18.021419385786018 0.0 -0.04000232775620953 -0.02937712909534872 0.0
182 2 11.245853916524561 8.223081503571802 0.0 0.021895553184932012 0.03907152472666324 0.0
183 1 2.5085932130862414 19.322603925476606 0.0 0.03721654596599065 -0.0625116047909044 0.0
184 1 9.05699176357401 11.818328210813801 0.0 0.10220036285240515 0.11596979444707899 0.0
185 1 8.210398132949095 5.895719171203911 0.0 -0.0355399121991572 0.09768322537297634 0.0
186 1 1.4307347982582725 18.511383598669116 0.0 0.03501281274827689 -0.003105666777280787 0.0
187 1 1.5692531413284614 11.511484912240093 0.0 -0.0474639681442335 -0.1248399044731738 0.0
188 1 0.1174985300517057 6.1615950380498115 0.0 -0.04622740644499061 -0.021242944460964433 0.0
189 2 5.627933973340576 16.984648719138626 0.0 0.06870186383334766 -0.02653705594769945 0.0
190 1 10.537209723346841 13.194626752502435 0.0 -0.0034703551294944157 -0.03806596484657097 0.0
191 2 8.38412753768624 9.32542864830792 0.0 0.053722033358321354 0.08295992583163193 0.0
192 2 3.0206541465541035 3.843100926715878 0.0 -0.005445691290182304 -0.060110302422745614 0.0
193 1 7.320273525804033 12.02535022563881 0.0 0.05046144820262879 -0.011320742895884887 0.0
194 1 10.239310668677355 15.156730236337186 0.0 0.0145443686763848 -0.09344225542319427 0.0
195 2 0.8858623198597746 4.264708312353998 0.0 -0.024337692872667346 0.07807999599230167 0.0
196 1 3.560127719567036 4.785403418810066 0.0 -0.14840713254946836 -0.035432150606470265 0.0
197 1 7.215340538773865 1.698334923129792 0.0 -0.05312820136855368 -0.1465972601507502 0.0
198 2 7.882766629036589 0.6681974411454222 0.0 0.021042653747910558 -0.01776870746559439 0.0
199 2 17.073759482040764 13.457189554431043 0.0 0.03726549516321641 -0.09130692777030305 0.0
200 1 6.601908486259248 4.389752063657022 0.0 -0.12039396186539868 0.08598903219643372 0.0
201 2 16.230117464269316 2.4867266492963354 0.0 -0.020544970032236785 -0.025144482875677235 0.0
202 2 18.29784281115334 13.637189341175167 0.0 0.04428869154066235 0.0343257762534862 0.0
203 2 9.509140371221536 7.007262364630993 0.0 -0.037625703843662685 0.009023176528351022 0.0
204 1 19.525846241272735 15.767316747949417 0.0 0.010425299868737414 -0.0022901236403731805 0.0
205 2 16.948554639891263 0.4642188599270879 0.0 -0.05408671553539988 0.009061071643560722 0.0
206 1 18.04060308889117 11.977078512410854 0.0 -0.058796456154089426 0.1185642465741504 0.0
207 1 3.051342773990992 12.781742393882942 0.0 -0.15294702646146383 0.05306490759019385 0.0
208 2 3.839348786708912 2.848456534136182 0.0 -0.061655176416059665 0.011391480581327652 0.0
209 1 9.825719024742567 2.995751989392116 0.0 -0.09529825187397895 0.006616435953499026 0.0
210 1 18.043619773172935 8.489462820128642 0.0 -0.18068625706740343 -0.05603616470152967 0.0
211 1 2.1309439096454468 7.708999996199688 0.0 -0.05004916489147262 -0.009872709346179186 0.0
212 1 18.991265813625336 9.372041884311026 0.0 0.0014283363649903991 -0.1414446871484097 0.0
213 2 15.248786215074148 18.257141038690513 0.0 0.03855615917325348 -0.08689616758696339 0.0
214 1 19.223304436154695 16.683656758246332 0.0 0.10910072732576155 -0.027855683804023583 0.0
215 1 3.8424332219068402 13.716236153514568 0.0 0.11165118912412725 -0.07224346848223195 0.0
216 1 6.875933589697627 14.281334780199474 0.0 -0.025333832489991187 -0.09886080954917974 0.0
217 1 1.0256205083010326 11.134146002091 0.0 -0.030522734682112345 -0.1108612295101534 0.0
218 1 16.720014616626546 16.199424404557373 0.0 0.053405846603234074 0.018505612061378175 0.0
219 1 10.008034432977897 18.374831201365676 0.0 0.04878905116260498 0.002035442359464911 0.0
220 1 1.033109876023105 11.895150669158653 0.0 0.00827810795222551 0.0305101804816426 0.0
221 2 8.687867544552143 17.170418698399914 0.0 0.07679140581288899 -0.07738800844598806 0.0
222 2 6.468272955616612 15.998008366356189 0.0 -0.09312807030941397 -0.019429048595302287 0.0
223 1 18.258840151825655 2.122987542048019 0.0 -0.019951796758340648 0.07529775355175185 0.0
224 1 4.137092036036067 9.882190417493504 0.0 -0.02536404025940318 0.07686223793451 0.0
225 1 9.789016301243967 17.196572873823598 0.0 0.0018618060868256566 0.022067370001578757 0.0
226 1 14.14628110434102 18.15906525960853 0.0 0.050309329811968326 -0.03150044050060768 0.0
227 1 1.073908197844985 17.955231218246244 0.0 0.06763006205815442 -0.22595555799504158 0.0
228 1 0.9721381240594151 10.477589910766799 0.0 -0.0027390448848610967 0.03580743210660008 0.0
229 2 6.232390439420017 3.36241523580749 0.0 0.010527100382976572 -0.007701824991177349 0.0
230 1 19.064050270118532 12.849797341099254 0.0 0.06353277848764961 0.01793593569203932 0.0
231 1 0.8220903374736778 2.482421659702646 0.0 0.06616006116033811 0.09126090132296787 0.0
232 2 18.257812992657893 0.9897326129420554 0.0 0.02423104495368468 0.0317753293267344 0.0
233 2 16.921098034978296 10.525857040482306 0.0 0.012480391286912062 0.0224936880913105 0.0
234 1 3.7947614305869726 18.027628749010727 0.0 -0.034925311469861775 -0.10524162676375037 0.0
235 1 5.469872567866435 1.0997060303088273 0.0 -0.1285261876867913 -0.018074080210772465 0.0
236 1 7.119810902181926 6.562415873772525 0.0 -0.025731938118791264 0.037132144665362694 0.0
237 2 5.695561557581506 11.583958205901611 0.0 0.03461258578427589 -0.050092347268200346 0.0
238 2 9.438458715625782 3.998448642661933 0.0 -0.019342563482739442 -0.011889042757037838 0.0
239 1 4.716850243359398 14.510463306868534 0.0 0.11119114060212826 0.12981061090590265 0.0
240 1 2.104201109384584 0.6110192867731452 0.0 -0.041879926069325855 0.00724593696347468 0.0
241 1 1.154505913098927 8.319427065381618 0.0 0.052373905212320486 -0.052503530495217096 0.0
242 2 3.146019151557924 8.085708919868615 0.0 0.02279032917885302 0.06179270158094934 0.0
243 1 2.9491889550437955 14.675211510685687 0.0 -0.06045795403739938 0.0033785216946206104 0.0
244 2 15.205779808344367 7.6004508688123735 0.0 0.06422739189178442 0.02874301036563428 0.0
245 2 7.365176085167132 2.789541448835679 0.0 -0.09014208867359426 -0.026925872133117743 0.0
246 2 12.090342619375457 16.45140554441192 0.0 0.050371555312440225 -0.009032380088740471 0.0
247 1 10.870428444337765 5.878429924006355 0.0 -0.02724708106387222 0.004848856787846014 0.0
248 2 5.675686712423904 9.097882915750139 0.0 0.020605966995379258 -0.1936418278292759 0.0
249 2 3.326437611500645 10.635543056981156 0.0 -0.004518316040992671 0.031287616573169585 0.0
250 2 5.740116604399472 10.336327787197819 0.0 0.009424224979136872 -0.016712146976279887 0.0
251 1 8.736341497582721 13.547567762175445 0.0 -0.026760832371207022 0.09548030442854158 0.0
252 2 5.738099656029036 14.076683585313136 0.0 0.018782135705444323 0.04244380571648072 0.0
253 1 9.558422613150373 17.85014241376336 0.0 0.1185732778975537 0.03030494230582491 0.0
254 1 8.357753744012802 4.104778356751924 0.0 0.00725191061692914 0.06546711696742116 0.0
255 1 10.090446061723311 10.949624820059446 0.0 -0.0038494837214745016 0.12031480778632388 0.0
256 2 11.315853296437403 0.595999849553474 0.0 0.08493652493962794 -0.0009383426598265631 0.0
257 1 0.4834874008135371 11.522057723904648 0.0 -0.09787262673897644 0.020680558177175977 0.0
258 2 7.252357044680735 7.677053696345196 0.0 -0.024345659626257704 -0.0399129537684559 0.0
259 2 14.18876740837951 13.745857395781107 0.0 0.01728153933532888 0.04949656407648045 0.0
260 2 17.234950598808044 1.7391230761711995 0.0 -0.009141936390084518 0.021935486230341597 0.0
261 2 14.400777265143496 10.093998296003646 0.0 -0.009702064965119193 0.009491232160232134 0.0
262 1 16.858940265902184 11.632818622394387 0.0 -0.05622874759614672 0.13402550932819016 0.0
263 2 15.571633495295366 10.603203570031393 0.0 -0.03507581985825106 -0.002278806251257953 0.0
264 2 14.99035087075037 14.68613294841272 0.0 -0.09086186883835773 0.02191453474218074 0.0
265 1 9.887179648046589 12.990095623135693 0.0 -0.06987159150209311 0.09616724450896079 0.0
266 2 6.8503190842134565 9.714922844177092 0.0 -0.040092848425210346 0.08462545483142958 0.0
267 2 0.3496691754491062 18.82902934187523 0.0 -0.01813237588285428 -0.01024077793064984 0.0
268 1 1.3228801411618747 6.675724881888444 0.0 0.17557083774813867 0.07415488756021259 0.0
269 2 11.609997056812356 11.960449518506506 0.0 0.04244892747943235 -0.02331622438763205 0.0
270 2 11.675954377875433 13.213682362321375 0.0 -0.05126609022879144 0.04644936910210562 0.0
271 2 15.404042124967948 13.447001308909647 0.0 0.0796233417634005 -0.07484219881737837 0.0
272 1 0.18899167647644535 2.7354960763221055 0.0 -0.03949210286336565 -0.10413882163228716 0.0
273 2 11.304157990177924 15.455662957955441 0.0 0.010749590577198789 -0.06912223624009335 0.0
274 2 16.29998903569832 17.48580366374629 0.0 0.020827270646798363 -0.01099150969128755 0.0
275 1 13.30968461233788 3.8264242205047414 0.0 0.029372684160470557 0.01746704620038072 0.0
276 1 0.4455731953788425 12.260938148644701 0.0 0.08191194788264891 -0.13835989024122627 0.0
277 1 9.329068040220776 19.5320270005391 0.0 -0.13620774387466186 0.06848622475544473 0.0
278 2 17.386617630755147 7.593653119070295 0.0 -0.06999766811068397 0.047371374642686884 0.0
279 1 19.586211108567195 17.86177963497458 0.0 -0.044290750397499364 -0.001370650704307149 0.0
280 2 16.567967229414986 3.698776293854713 0.0 0.03304269558524277 -0.07477449451092638 0.0
281 2 8.72898091004799 15.88653179938651 0.0 0.004282910790195022 -0.03797649109864158 0.0
282 1 9.55450398632932 11.3796905986098 0.0 0.02508099946593869 -0.1164495307977631 0.0
283 2 9.090035368306333 10.413852419195855 0.0 0.04654793760125605 0.10426531233618734 0.0
284 2 17.493629650600536 14.63681767226032 0.0 0.05749744099361966 0.0019802599946136734 0.0
285 2 15.24680997138905 16.869306319901742 0.0 0.018114507320420522 0.07346976183295502 0.0
286 2 4.580441038591583 10.894028765985775 0.0 0.027299170386749998 0.12468224875731121 0.0
287 1 7.152727550603801 3.9221600905328513 0.0 0.005171681089113149 -0.014787678523721912 0.0
288 1 17.268525203251077 2.871481874365123 0.0 0.016642614028232087 -0.039032360054489144 0.0
289 1 13.514101322246177 8.12604123918309 0.0 0.018283230815434155 0.05247852986545422 0.0
290 1 18.661935679253748 6.527314384080214 0.0 -0.17627165615777252 0.023789026647752582 0.0
291 1 11.546837257401526 17.98940118832995 0.0 -0.10290352730167045 0.04305603331049702 0.0
292 2 17.850537049987405 19.360919459540312 0.0 -0.07317946957445533 0.019674991709092923 0.0
293 1 19.54400035317513 3.970998559415457 0.0 -0.1157670781053033 0.049233201753637615 0.0
294 1 14.30865779402001 6.3941045252053055 0.0 0.08480855982391415 -0.004854378636417319 0.0
295 1 17.890328543711057 2.6847469946669547 0.0 -0.07627540827388629 -0.07164764900931467 0.0
296 1 3.199167346590747 6.762989835167223 0.0 -0.05939688918147888 0.005351490112338657 0.0
297 1 1.816133544917685 8.289291158093286 0.0 0.12418185073182607 0.025060279507877568 0.0
298 1 2.2922280390887213 8.74048246701362 0.0 -0.03844436732023848 0.011227162345296218 0.0
299 2 1.1028057103500777 5.58446729534589 0.0 -0.020983472010928043 0.0015684163969938536 0.0
300 2 5.066941200168729 19.15078632304354 0.0 0.055071262064344366 0.16675101433292183 0.0
301 2 15.92220972270153 1.2045701854536128 0.0 0.03238085632570626 -0.0007470261544876867 0.0
302 2 10.918839670604662 1.7489283226482086 0.0 0.059060132204818 -0.004465635209866681 0.0
303 2 15.753350451810885 19.55702910617333 0.0 -0.09372669405119086 0.009906954178311113 0.0
304 2 8.702723713964536 8.103840797881317 0.0 -0.005296019528447322 0.007993593507479383 0.0
305 2 6.571641861771457 0.8206820047173696 0.0 0.010686915679433692 -0.01979737052532746 0.0
306 2 13.223550387505624 17.479550019799845 0.0 -0.08145642148951815 0.05938887612838972 0.0
307 2 15.687196697422303 4.537521959655639 0.0 -0.08330430052116447 0.06861609028542597 0.0
308 1 2.734871483975804 18.668820374439477 0.0 -0.10307467868105936 0.07226188008514696 0.0
309 2 16.286776464286866 6.935172995636494 0.0 0.03631538969700636 -0.0392018549740911 0.0
310 1 3.7270638739622033 7.18372087350908 0.0 -0.11909494693918149 -0.08251613072576253 0.0
311 2 1.954919536381315 15.07052937837609 0.0 0.07440627777517383 -0.09488542801105264 0.0
312 1 7.563036669834275 14.14676612835677 0.0 0.04604362955295661 0.01105570135573506 0.0
313 1 4.409699373181138 15.692056038925339 0.0 0.01541441919652387 0.012097805111354274 0.0
314 2 13.208724678211832 6.518153204261584 0.0 -0.1480224605162783 -0.04826923704411544 0.0
315 2 1.834768080294352 2.1799262127461088 0.0 -0.024585625095916625 -0.046349071002530294 0.0
316 1 4.842910928796575 16.19295317771363 0.0 -0.023563533818873033 0.04725694120588886 0.0
317 2 13.406359227912903 0.9387819817274142 0.0 -0.010702946373537903 0.055555606215829646 0.0
318 2 9.715139434624867 14.080307728196539 0.0 -0.02843914969916959 -0.016819947022573865 0.0
319 1 0.032208170685653875 14.960595764458954 0.0 0.004412254113639312 -0.1752081557512161 0.0
320 2 17.019597985139406 4.885774307987682 0.0 0.07274302947003085 0.054331301004923366 0.0
321 1 1.2188367553463293 13.272935894275744 0.0 -0.0555025308706231 0.03549510945262681 0.0
322 1 0.5740832828232914 13.072262542239237 0.0 0.030467194347786636 -0.13377441407857826 0.0
323 1 15.595753395969917 11.725676925809466 0.0 0.05564376433939539 0.018482752767051178 0.0