ITEM: TIMESTEP
0
ITEM: NUMBER OF ATOMS
400
ITEM: BOX BOUNDS xy xz yz pp pp pp
0.0 19.7609 0.0
0.0 19.7609 0.0
0.0 10.0 0.0
ITEM: ATOMS id type x y z vx vy vz
1 1 18.699121182524202 12.163292956571961 0.0 4.5831830212487565 -11.82847062357027 0.0
2 2 17.399055652165334 12.556362199547664 0.0 3.3921785316512305 -12.179078577965498 0.0
3 1 2.2856453129863423 5.822439494704908 0.0 -5.20217148922126 -10.983879010112611 0.0
4 1 1.8073593647144393 18.95208889046005 0.0 7.587649833546697 -10.387718803515597 0.0
5 1 17.733122110780496 16.536337317399962 0.0 -1.851725461949845 14.529689538694035 0.0
6 2 10.719276148023047 18.367563641819455 0.0 8.6248670959531 -4.364999330752774 0.0
7 2 0.5440044819743066 15.495979761571299 0.0 0.013974913033095731 1.3156225633375354 0.0
8 1 5.440774563506838 2.4013271513697707 0.0 -2.5793935000241 5.6447731941810195 0.0
9 2 7.730371318181992 6.775471857570478 0.0 3.393013523465596 4.146822917687763 0.0
10 1 6.8609053846222015 11.596262820131896 0.0 -6.914880944711338 -9.032162991003739 0.0
11 2 7.851440430673877 2.9892063400733333 0.0 -10.519208056598835 -2.2955680006598502 0.0
12 1 12.129947855092059 19.036297264481043 0.0 -3.4850472722033223 -0.6997449504835404 0.0
13 2 2.9096481570368713 5.145073124008148 0.0 -0.3363341828195805 -8.885953204966015 0.0
14 2 13.59107916912885 15.319764441134916 0.0 -1.082505986189595 -6.188044778538561 0.0
15 2 18.111631726781837 6.5737386755580625 0.0 -3.961771503546191 -11.599057639923112 0.0
16 1 1.7899011231668938 9.810152079126476 0.0 12.403820384060216 5.730084216581514 0.0
17 1 9.598283278419256 18.249399821177125 0.0 -2.314383279848154 12.820655751324848 0.0
18 2 9.566823110885336 14.789766875391217 0.0 -3.42899430841526 4.739511725614549 0.0
19 1 2.830402718478248 13.811796128787343 0.0 -2.7605151016330676 -6.006804726873215 0.0
20 1 1.5128701826054474 15.43190125407243 0.0 -5.473828612368735 -5.878458349258287 0.0
21 1 8.942204750131976 9.882339335989167 0.0 10.347034622005342 0.4382418666804069 0.0
22 2 2.241015157768702 7.606870373296113 0.0 -2.928796817911323 0.2984728389073493 0.0
23 1 8.834756926394512 8.130568240336713 0.0 1.1182317606576229 0.17049970235103762 0.0
24 1 9.688121531088315 11.17874812648678 0.0 -9.30170496796838 2.117021916480278 0.0
25 1 17.751894391484125 9.585605289163185 0.0 14.261820467007192 -3.4092052217487243 0.0
26 1 10.376823762803143 0.2927023645082714 0.0 -7.576289494243692 -1.84427632497412 0.0
27 1 6.813707690076337 8.044917568099505 0.0 -10.856653056891014 4.843985944239354 0.0
28 1 3.2836442433767457 14.513599298833938 0.0 7.891436147489901 -7.348083102950945 0.0
29 2 15.36167893568779 2.588179970564269 0.0 3.405872296587707 -6.023021994222771 0.0
30 1 2.753618176804403 14.697818777527491 0.0 2.937687778331168 -0.04608778427189157 0.0
31 1 8.843677199354621 19.265992339431794 0.0 -1.3079147477859383 4.660273543810431 0.0
32 2 1.272438236115682 8.213660140887294 0.0 3.4402293694713992 -1.1812548496599744 0.0
33 1 1.4816903902054368 17.8959390130061 0.0 -11.224889214196079 -0.8681521309113333 0.0
34 1 12.152767474238601 19.640454813869656 0.0 9.216412339084165 -17.567177526245274 0.0
35 1 1.318649614235853 17.354265138079572 0.0 1.8436934307330952 6.180580258049372 0.0
36 2 12.351786089885904 15.776584481705582 0.0 -0.6394584556679126 1.7543789005405863 0.0
37 1 10.129213416347232 8.509259554825922 0.0 -3.5278758396969487 0.16518259206246222 0.0
38 2 6.021742878040909 11.68721458559308 0.0 2.620220291277525 -1.1692644636862828 0.0
39 2 11.49223052983414 7.258244708224814 0.0 6.971886414875557 -10.343138196260576 0.0
40 1 12.815063285739452 4.465314820860812 0.0 18.09891122599947 13.721129378940626 0.0
41 2 13.651686262381505 11.647348558863373 0.0 1.3907807855649073 -2.0542770870067417 0.0
42 1 15.82149720195519 19.340290762392307 0.0 -0.8055011106358434 -13.76042790006593 0.0
43 1 11.988562867895983 1.5001467302481042 0.0 8.168356333993549 -7.808656969656679 0.0
44 2 9.356295888087473 1.7357174232929318 0.0 13.182343104646325 5.242999321209528 0.0
45 1 12.198912394962207 4.415723855505883 0.0 -6.040353469330188 3.398690379946096 0.0
46 1 5.114200580084958 1.7070517458398935 0.0 -3.3855077840780883 16.868008154699783 0.0
47 2 7.381199071335889 13.280600486961388 0.0 10.257200849475383 0.6215229123659716 0.0
48 2 0.640076617695878 3.5130871080776207 0.0 -4.283040150195079 8.967669379847932 0.0
49 1 8.051727693319958 11.638156134014425 0.0 -1.5126806001879276 12.963646489700134 0.0
50 2 11.653687976081319 0.5512850475263461 0.0 -2.902598166822442 0.8157762152350686 0.0
51 1 16.310139891211325 8.777083627827812 0.0 -19.04696563264878 -0.8996314549274678 0.0
52 2 7.653931829100783 9.458372530174069 0.0 0.14171749394741734 4.87627322961506 0.0
53 2 15.733043377383867 9.206539222701698 0.0 6.416278432792684 -0.6977936611843841 0.0
54 1 16.289265807890366 13.043744518227097 0.0 -3.621406513525798 2.439669101556863 0.0
55 1 6.772738463114297 1.1720316572481722 0.0 -12.558435308819698 -20.127905610930945 0.0
56 1 4.90010896375832 17.91521011501067 0.0 8.501153368521436 -11.891661395901526 0.0
57 1 2.1239609048662467 17.762353644525508 0.0 -10.055141758871484 -10.157103342886508 0.0
58 2 8.639853312383645 17.778876422428414 0.0 0.14111389668862237 1.6594201257566294 0.0
59 2 19.657872874490852 1.0086414757780051 0.0 3.3370396592092244 0.7070297808096921 0.0
60 1 3.2492421309547708 11.448284942493315 0.0 0.07893868107909358 5.7656530760677205 0.0
61 2 7.869807732173854 14.075095845033449 0.0 6.6565541943160085 -2.0297663773069625 0.0
62 1 4.679986343694841 13.946976814353462 0.0 -11.997431925183243 10.455710441688524 0.0
63 1 9.95166731296815 18.91540512614324 0.0 1.919087411007763 0.25893995593163593 0.0
64 2 10.03211663885734 10.096598455110584 0.0 2.1460510665342674 17.103927686981162 0.0
65 1 15.164408660619298 15.72226915001343 0.0 6.6570776763323725 -5.205271849836599 0.0
66 2 14.68115980935534 5.693212910229608 0.0 1.1410883874356408 -4.628566986793414 0.0
67 1 16.765305575113604 17.211481596999672 0.0 -7.240818153179195 -5.523632489038193 0.0
68 2 3.9009252024310794 1.7977780823803784 0.0 -3.7799630994359745 -1.6303840104760736 0.0
69 2 1.1824024662709274 13.860840527527234 0.0 -16.369910058765626 -4.196186404608081 0.0
70 1 1.8766127646872963 2.111137029242805 0.0 3.6071015398363926 -1.6031111119603418 0.0
71 1 7.741646783478789 12.240708998067436 0.0 9.283420866819764 -8.519867962518639 0.0
72 1 7.213839683142855 5.006408980248723 0.0 3.881099177742268 -12.281307795234065 0.0
73 1 8.699598635006488 3.971374766415471 0.0 2.2660502858536957 -3.9591890709277444 0.0
74 1 13.287350935673302 18.29537084369082 0.0 -7.248454037629686 10.038106324931071 0.0
75 2 6.489541414732125 8.899954040100752 0.0 -2.634556062758243 2.3443868536818755 0.0
76 1 3.0747553633908797 8.83698338019646 0.0 7.75820948035509 14.560472481790095 0.0
77 1 12.852010635709862 6.272894255585532 0.0 12.675741523447385 17.646441018243014 0.0
78 2 19.148777449223108 18.411158062010518 0.0 -1.3917400811815146 -0.03241151942576704 0.0
79 1 6.15049003502432 3.0055709263311763 0.0 -2.9587963659863012 2.9083417286866218 0.0
80 2 16.27526881439194 4.450579389779396 0.0 8.094608773867778 -10.791542558624302 0.0
81 1 4.040385468838595 5.987844507923326 0.0 9.042803247756913 -3.3912851788902794 0.0
82 2 18.73269044557067 3.9558849078983243 0.0 0.3190766355751443 -1.8065878989442314 0.0
83 1 3.3544071895616185 16.76154641003826 0.0 8.619101113096642 -1.2316339915434271 0.0
84 2 11.2285272632996 19.115128348431565 0.0 -7.876451905689689 1.4777581691114845 0.0
85 1 7.164314807150019 14.684092609413957 0.0 1.653275156086242 -1.6881094809896147 0.0
86 1 3.0890693075405413 2.35824210417809 0.0 8.045176959186279 10.2051528646602 0.0
87 1 8.784302538184292 8.914600622462824 0.0 -0.2404659761120205 -7.115647128730127 0.0
88 2 1.2160508194500723 16.135354270480207 0.0 -1.1588223626161536 0.3851319992401534 0.0
89 1 10.182045280380054 12.05600071213898 0.0 -2.5709918701452783 -9.906000999894452 0.0
90 2 7.258051749196112 18.49724400538165 0.0 0.6712220756762785 9.241155599606586 0.0
91 2 6.470492409785514 19.074951257440453 0.0 -7.296385665468027 12.561555323487754 0.0
92 1 7.517523801465048 3.63117318923508 0.0 -0.4921436812644044 7.232651463798912 0.0
93 1 2.015130955539571 0.24878738631989508 0.0 -2.5072124619074163 16.55972129692386 0.0
94 1 14.69284077793671 19.60218290095105 0.0 -14.006698449854277 -2.5462202186010727 0.0
95 2 18.383575035481176 3.0680304838777075 0.0 -2.1434725687667684 -1.637644850785014 0.0
96 2 4.238796039503512 10.984908510759356 0.0 2.7833443098950577 0.3616278778459701 0.0
97 1 1.4431387964351567 3.9185316669488968 0.0 -2.1626629073267853 6.974800646658246 0.0
98 2 6.894320297095139 5.987441809931413 0.0 4.7750512114991635 4.101292388150215 0.0
99 1 9.925587556032328 8.834396972866689e-5 0.0 -3.0539889218731218 -1.9270480822438174 0.0
100 1 6.837285763192485 13.923607002860653 0.0 -9.82600287955199 23.609793707525846 0.0
101 1 9.454968527585134 15.584979510210218 0.0 3.745522845709515 -2.315774278251218 0.0
102 1 14.501323801336605 14.625609919519581 0.0 -2.8953184424236302 -1.32783677200648 0.0
103 1 9.497749140487185 10.650707530676403 0.0 9.481552701993113 -7.184034069898532 0.0
104 2 16.921081790214092 18.93642756317181 0.0 -0.2835586233528651 2.4718152928590187 0.0
105 1 3.5934750518094702 19.579098826588776 0.0 -6.4856422819661965 -8.791891123239633 0.0
106 1 7.949808532754058 7.522591728672322 0.0 -1.9166519367259547 -0.7787328977065888 0.0
107 1 19.171761760267866 12.72668500201872 0.0 -4.307910850845406 18.01315839225458 0.0
108 2 1.2515902451177814 6.968069492516654 0.0 -3.7179171350862372 0.8522544315927252 0.0
109 1 9.94732827960204 5.776754782679165 0.0 -1.21561010147616 -5.016875901367984 0.0
110 2 2.299921589114558 8.407726255168454 0.0 0.29513473979382815 -10.43753393787295 0.0
111 1 14.916907729338519 0.2549646620861842 0.0 9.272146450246128 -9.038441018346015 0.0
112 1 11.268056248326525 16.74469371814654 0.0 -12.79377281449936 1.6359990998100453 0.0
113 1 2.178147830144165 13.622806255854798 0.0 3.1731166324402955 1.0809247831637965 0.0
114 1 4.418732880871742 2.8242585632378496 0.0 -3.6283316802730585 2.2819572659440226 0.0
115 1 0.9636070543916798 11.601076002635693 0.0 -12.5180680578979 -6.895730164830681 0.0
116 2 7.524676648945733 8.551970816805284 0.0 -2.870605322011182 -3.7255039735996918 0.0
117 2 17.310446700346187 15.557109699540987 0.0 9.862537486851561 2.9470550245395803 0.0
118 1 11.866960629168252 18.536830361881325 0.0 -0.49527248009819863 -10.499519499838849 0.0
119 1 3.558666123643886 11.806601031786668 0.0 6.372695400707146 13.070174865342105 0.0
120 2 15.557693420840005 5.359849994274902 0.0 -1.8648692804589444 -0.9066567633616005 0.0
121 2 17.85024838208989 0.2475391728770499 0.0 -11.88422885402464 -4.7683618477751715 0.0
122 1 1.3078963286737402 19.115980628107742 0.0 -8.918774948827435 9.430724298488244 0.0
123 2 8.977211579147768 12.649375127660747 0.0 -6.082900945278538 -8.993653777751849 0.0
124 2 4.721975610477451 8.048286758225675 0.0 -3.478622897439144 5.853355585306733 0.0
125 2 17.514999007653717 2.421453230273872 0.0 8.890337392576612 3.3679409145885613 0.0
126 2 14.446493945182779 10.832309915919426 0.0 10.754675155041534 3.7734425651054053 0.0
127 2 12.926560805145057 1.956502412972916 0.0 -2.527618879254272 5.878732466290617 0.0
128 2 0.42418682159425464 4.941919357370691 0.0 -1.4631365422297729 12.595928932475521 0.0
129 2 6.919182806658481 2.3851307571943803 0.0 -8.474849217057097 1.3390073432299094 0.0
130 1 8.052354250913204 8.058215214821887 0.0 -0.7654416684589959 6.93387315198735 0.0
131 1 16.066066646527467 18.914596912772463 0.0 0.06969880902850378 -1.1140408023546264 0.0
132 1 12.879522819201066 18.792550282412545 0.0 0.6632941434020427 4.012502494806985 0.0
133 2 19.688464027694664 13.467521606591372 0.0 5.675187971467698 1.7284361265729637 0.0
134 2 11.781169289828478 14.344499164576915 0.0 -6.390759944386974 7.403655719326386 0.0
135 2 13.388372467452708 8.836405895825054 0.0 -1.0806401732253201 -5.686158471787194 0.0
136 1 4.679558681908638 2.481012670153958 0.0 10.730543961275611 -19.303496527542872 0.0
137 2 15.615754308518008 6.385513255797524 0.0 5.167853911075451 -0.12324190168586799 0.0
138 1 4.452866563826541 18.14646765082613 0.0 0.5334485400337783 19.295337741466867 0.0
139 1 11.986629425555204 8.785759258224084 0.0 2.82739181432745 -0.9993924686692929 0.0
140 2 3.8662104674239335 6.829818520846035 0.0 6.195281860202172 4.200901848237889 0.0
141 2 17.854127927008786 7.54107937985187 0.0 1.3287024906895248 -11.742976545644742 0.0
142 2 0.5372234243364529 18.03601486616 0.0 8.52273851613042 -1.315118764147649 0.0
143 1 10.463737225497544 11.102455421229877 0.0 -2.624138686111787 6.0976463029442955 0.0
144 1 10.752655480592376 13.346181528810407 0.0 -5.884862320347891 -8.867366718843437 0.0
145 1 14.723392294902322 18.43743275190755 0.0 -0.7799939463193611 5.477788857302365 0.0
146 2 17.962170294465135 14.97463308910256 0.0 -1.6609342976505777 2.4925831839866377 0.0
147 2 13.673417711231552 9.722133430476617 0.0 -6.072308622920363 -6.034501528949248 0.0
148 2 13.69838101152852 17.256563658234896 0.0 -15.20225811053226 -0.6592667096317847 0.0
149 2 11.702822624009562 6.237075859559449 0.0 -0.9454975345682278 8.438264777093828 0.0
150 2 9.675453087334095 1.0021163127024835 0.0 -1.5267626836444026 -8.55988620810892 0.0
151 2 0.9900556204768395 10.6955007288443 0.0 13.142419501758432 -4.2139127367425235 0.0
152 1 18.399015389668474 10.977682354946628 0.0 9.5075364384649 0.8985691215881166 0.0
153 2 16.34587534254754 14.627313382592039 0.0 -0.3131699000643954 2.102229619673963 0.0
154 2 10.64454772399643 9.115792592964123 0.0 -2.3191404581229547 -4.779572186426242 0.0
155 1 9.467581218851263 16.735148647746023 0.0 -4.281691061321908 3.9443459525890017 0.0
156 1 1.9466512226550567 12.536906221457752 0.0 6.98338447308021 -4.973663085189852 0.0
157 2 18.42298163105102 12.944176251561425 0.0 -5.655415677533556 4.235400813568861 0.0
158 2 3.859034737949802 5.010069163005822 0.0 -4.163211027469019 2.18956714711131 0.0
159 1 3.1535172744683755 15.114618603497874 0.0 -2.73821817537184 11.823958203750466 0.0
160 1 12.877744727556419 16.781481001202863 0.0 11.399118063644492 -11.622795158488929 0.0
161 2 0.8429004035270816 1.1186095089612242 0.0 -4.2028374984444925 0.01993848162576319 0.0
162 1 16.824628814655043 8.381665056454906 0.0 2.6679381229212904 12.321809744147602 0.0
163 2 15.554666132942755 12.375289771980913 0.0 0.9590919250161248 9.841103989246626 0.0
164 1 6.358083055259211 17.48698964634522 0.0 -20.144049165802294 4.919145082462647 0.0
165 2 6.591122008628714 16.087525120186328 0.0 3.0547583513053094 -4.910715532079007 0.0
166 1 1.5725656889236397 19.52491166105672 0.0 4.977768411117979 -13.38846953744032 0.0
167 2 17.771011627110735 5.773179802510847 0.0 -8.915473513881885 -7.496541833686274 0.0
168 1 5.23597659673926 10.937564936774582 0.0 -0.48215862317890434 2.0856129040541256 0.0
169 1 0.3827321927390423 19.118145481248046 0.0 -3.4235423461533054 9.769243942959127 0.0
170 1 4.8096664085333325 3.0592982891372866 0.0 -11.212033090877236 5.622041945480611 0.0
171 1 1.8927863922569033 9.11097105298151 0.0 -11.687636815895441 -15.369621768040634 0.0
172 1 3.0129463213530374 0.5735656701795998 0.0 8.793012041931785 17.033629799172495 0.0
173 2 19.411664747646384 19.319658933980996 0.0 0.7593874563058194 0.8810296518412618 0.0
174 1 6.647274613671519 15.098282021724701 0.0 -6.326089180813451 -8.881271104652626 0.0
175 2 10.79604043285646 1.091367216609507 0.0 -4.873497823791232 3.1015492047720548 0.0
176 2 12.436401683087148 12.739770103278559 0.0 -1.7380186715838861 -1.8373694131253417 0.0
177 1 4.2901580262596 10.138322570159291 0.0 -3.2571699164149766 -5.303828276635913 0.0
178 1 5.798999231750555 8.450196429271854 0.0 -0.6498850057691783 -8.33724796585291 0.0
179 2 9.878302298528723 12.868405109406508 0.0 10.995694839268463 0.3179005116258537 0.0
180 2 6.235399217052342 6.473271748583069 0.0 1.1760714358528483 0.5572379907549192 0.0
181 1 8.331185951588365 2.0142010467011633 0.0 -6.864339677293138 11.591668166147823 0.0
182 2 10.586190083810218 16.28489937421553 0.0 -3.847900131096568 -9.759298522834177 0.0
183 1 12.173009830799629 2.5038277530189434 0.0 -16.024425938250978 -9.400749099585093 0.0
184 1 12.167632376299183 3.6888619198981196 0.0 -13.858874895932267 12.183972564566933 0.0
185 1 9.954504080988363 4.758235096109088 0.0 -6.3408469707416275 -7.991818357641508 0.0
186 1 19.489151492562087 11.132002673787623 0.0 9.542485821727716 1.9749142833482385 0.0
187 1 5.9860806010024135 13.871047383864674 0.0 -7.548022330703512 0.6720954551013268 0.0
188 1 9.566789855664537 17.65320779331334 0.0 1.358047215284376 9.477135765782975 0.0
189 2 4.20643849909846 8.867360608478958 0.0 0.40367444650618756 -1.2729105232605025 0.0
190 1 2.9657319827680015 16.348916763723583 0.0 1.2018594070147999 -19.335547906793504 0.0
191 2 9.620049664248846 4.0377559219349815 0.0 11.321208002491584 7.643443050347054 0.0
192 2 5.167124817943055 6.284345516772354 0.0 -3.380044924530382 4.497864486954587 0.0
193 1 8.14310322991362 3.8908426286459767 0.0 -8.157879588564747 5.275259675803528 0.0
194 1 9.600196215305218 19.25248843460052 0.0 3.259242723718051 5.477045669336389 0.0
195 2 6.134614054890121 0.42413481778243234 0.0 -7.244088562693287 2.5543500150231697 0.0
196 1 19.328918324901753 17.317166135794007 0.0 8.806708193226982 1.9288282215096806 0.0
197 1 13.176855763837342 19.506586912513114 0.0 4.443557144893389 -1.9738131570107165 0.0
198 2 2.9664118878432384 1.6271711796042563 0.0 6.946990415492996 -1.381749501333328 0.0
199 2 12.622476319482614 7.565677494436365 0.0 3.426547778892157 -3.303003271837825 0.0
200 1 5.566442246987374 7.917014249094473 0.0 -3.7321546042557716 -8.353989982319263 0.0
201 2 9.726371226580138 6.593610387982857 0.0 -9.658815153332231 5.302542873010767 0.0
202 2 13.72947172869662 6.707487721912962 0.0 1.1681630781429524 -10.65569805948263 0.0
203 2 15.603905980668708 13.95156176524032 0.0 15.474950906311603 11.008471013858742 0.0
204 1 13.726768703982868 2.4615577449538004 0.0 -10.891061991640344 -2.852675193133668 0.0
205 2 4.5938258381963015 19.506388341996676 0.0 0.8803741603367337 -3.547722009111112 0.0
206 1 3.3160271659654215 10.186816766986835 0.0 -12.837728285725282 -2.0717070169536766 0.0
207 1 7.861430998797766 5.812111123402234 0.0 17.599215337691035 1.4863340628662631 0.0
208 2 14.911389943399975 1.1002843172137275 0.0 2.5701554186139344 5.309815693255317 0.0
209 1 18.515057222127357 17.31132262079222 0.0 6.8231858283502875 15.161021721457436 0.0
210 1 2.313480403248855 2.4857042484499754 0.0 6.726202803242656 6.57705008737378 0.0
211 1 16.452102080609688 13.596952871684392 0.0 7.269560704648466 -8.81463026186271 0.0
212 1 16.179519797343414 17.8005077495086 0.0 7.306420760640474 -1.9328544541683021 0.0
213 2 3.777825102871367 17.91203693795292 0.0 -4.337730208782437 8.358415062407616 0.0
214 1 15.659912027615283 1.3322813503824842 0.0 -1.4975728176497043 -10.57891695451517 0.0
215 1 12.900061784193076 5.7937205091122 0.0 -4.3755930048645855 2.1307359678147737 0.0
216 1 6.904932740145706 9.541479231533884 0.0 -12.037274231177967 8.376371091308867 0.0
217 1 4.138112045495968 11.994883035088867 0.0 7.3734576086925605 -0.04470904256543736 0.0
218 1 5.82621390987319 4.691960832797302 0.0 -4.054363863582038 1.7858357619912892 0.0
219 1 1.8084222132910603 18.370836604769753 0.0 2.837290085403394 -5.16835665735791 0.0
220 1 6.2311476992974395 14.828588391032543 0.0 -14.446875022968909 -9.256920347810905 0.0
221 2 15.018687628221839 3.3369056108250543 0.0 -1.5257531055539413 -4.714557489037585 0.0
222 2 14.667692169557784 9.738937747744398 0.0 4.216149426387972 -3.8595887283668424 0.0
223 1 7.854263827454827 10.457736994144295 0.0 -3.925741474019884 -13.247059232275216 0.0
224 1 17.88689015769997 10.770225710333227 0.0 -5.27464293736846 -3.4788739439493175 0.0
225 1 17.71647673401395 9.043596552026296 0.0 4.005795016086182 -8.103175160597186 0.0
226 1 3.295750167995961 13.816034821255212 0.0 -8.4770441891683 11.988256344578167 0.0
227 1 1.684051722911522 5.973190691429061 0.0 13.558231676760832 -6.918333230318047 0.0
228 1 18.863002248006417 10.084280498389857 0.0 -2.865586098947537 -8.729817961246253 0.0
229 2 13.45169493279253 12.527918498111697 0.0 -14.07636630083806 -6.541033698557759 0.0
230 1 9.74855431573917 8.99941741648434 0.0 0.9851198730135642 -4.438640258954295 0.0
231 1 13.967221610818417 14.153131647454394 0.0 14.761778139193066 13.341961439301958 0.0
232 2 10.422472670621877 1.9934994327191122 0.0 -10.228187677828997 -0.8114821113948854 0.0
233 2 2.481932653379567 15.618336972694735 0.0 8.582819704315089 6.1571367196308096 0.0
234 1 1.4218683780179606 11.436495893972115 0.0 -1.9127880228221992 -0.4691120261740704 0.0
235 1 1.3010849537533538 5.490382721695524 0.0 -0.7444221647393361 20.232479040003785 0.0
236 1 6.423395075161351 7.670156407715232 0.0 3.035315513938969 10.04379355166172 0.0
237 2 18.728398962429786 0.8225620878863492 0.0 -0.40885353684317255 2.5166227878711886 0.0
238 2 5.9380117243578505 1.8738663716641435 0.0 -5.512963791739609 -2.772626955395061 0.0
239 1 5.687652263759263 19.097698807382198 0.0 6.175346056578584 -3.360293962053006 0.0
240 1 18.93604000904853 17.010810420165097 0.0 -7.797264318845619 4.14470888594516 0.0
241 1 3.9690856175295828 18.84326103432311 0.0 3.4906831774226506 -9.414509310290166 0.0
242 2 7.68294943755773 0.4150909644592824 0.0 3.2317856047578104 -13.086098292894185 0.0
243 1 12.219155761680481 13.548384118921062 0.0 -19.3435757217382 12.227685610976076 0.0
244 2 5.392118721575058 5.431419978085053 0.0 -6.963704178797571 6.987618827028603 0.0
245 2 0.7461235623773109 9.67611612662424 0.0 5.8653337503165845 -0.7967398229636623 0.0
246 2 3.0571442837773497 6.236652026744235 0.0 -6.465284205598675 -9.117760704430106 0.0
247 1 0.3561143745342018 7.618932514358245 0.0 -1.3561004688428973 -8.222432555466044 0.0
248 2 16.982450303669367 1.1417186853998174 0.0 -3.2932594719692356 -0.9086132426970047 0.0
249 2 17.133085450300783 5.204290251826064 0.0 5.847773035203295 1.5585014569336073 0.0
250 2 17.917363321479673 1.4966635610093266 0.0 -2.248998771131424 8.952118853483015 0.0
251 1 12.705620402552116 3.1825025171960104 0.0 -9.268562277177278 -0.0466376322585516 0.0
252 2 1.9229511172864457 3.3209187582372848 0.0 -2.399783209756288 -3.3399601573687367 0.0
253 1 2.4160127992756384 0.8863358629244474 0.0 2.8072256594348692 13.212399923674472 0.0
254 1 9.247768587833836 7.844073528042215 0.0 -0.7785147991798588 9.998253060022476 0.0
255 1 6.832854952920986 6.928462947139485 0.0 -2.7172065562183527 15.82228731638077 0.0
256 2 5.93575672447662 10.136079129639706 0.0 9.457671016245248 -5.364207546958246 0.0
257 1 13.201511410567692 14.278386662894787 0.0 10.884265091755632 -18.236943659258046 0.0
258 2 10.899274937173619 10.329961527376529 0.0 -7.698487892143273 -7.291294043866041 0.0
259 2 14.981238673478945 13.10811654305905 0.0 -3.5386711469155085 -1.4301368149740896 0.0
260 2 13.633708541747035 4.795990683159248 0.0 0.6419344711053325 10.532382809100776 0.0
261 2 19.747151043228207 10.297612990940342 0.0 -1.4699260275751154 0.02697614247126287 0.0
262 1 6.494435972006638 18.031533683792958 0.0 -10.29931714474422 -6.782025842792549 0.0
263 2 7.944798353842581 19.253475737780892 0.0 6.711164655963658 -1.2882223980043122 0.0
264 2 19.1030488329032 8.043872658524265 0.0 0.9557831171337388 1.127580799675199 0.0
265 1 2.0266495350057085 11.984404226529977 0.0 1.928802857750044 4.5754611683681015 0.0
266 2 16.489795440239856 6.0937851075829945 0.0 -1.7326842898777641 4.354833261715557 0.0
267 2 3.7197156977407273 7.713411668195238 0.0 1.1941107325948206 -2.0819471392689026 0.0
268 1 18.39363150442027 2.321717913338895 0.0 10.286812063994441 1.0569106652061273 0.0
269 2 14.683280086313088 4.1843263240124235 0.0 -8.878573764025091 1.7472756526610949 0.0
270 2 2.1834337035890115 16.568214148182467 0.0 -2.3468001062030264 -7.8985984153878475 0.0
271 2 12.259683265356122 11.779133349874943 0.0 10.079961495609538 -0.9732227735180022 0.0
272 1 7.398055243350963 15.484258247815765 0.0 -8.193760729645378 -3.3248338310070404 0.0
273 2 15.884338518575381 10.386132266280757 0.0 -5.151427350733521 -3.3372323112355615 0.0
274 2 11.422877183296904 15.77232214164688 0.0 3.332423747495034 8.401033958888721 0.0
275 1 8.730768077788134 11.80753338530248 0.0 -13.287637145643187 -0.1902890477011196 0.0
276 1 14.332052318497043 1.9067637960682895 0.0 4.598697798116903 10.769741964500692 0.0
277 1 19.176446813534685 6.93927642112721 0.0 10.064372611492484 3.19307419896603 0.0
278 2 3.111224423203737 12.620720057923903 0.0 -15.130947310701742 5.386561697740974 0.0
279 1 17.79936262929029 13.39202231040243 0.0 -9.543695379814217 12.024579238062755 0.0
280 2 0.07728127277708158 5.769191097312497 0.0 2.9875173629396583 5.543596539860684 0.0
281 2 19.53806578354845 3.1373144585100317 0.0 -0.22806131620355152 6.668157452113924 0.0
282 1 2.1096661605589513 14.761264417127842 0.0 8.66336964733346 -4.098082470530322 0.0
283 2 15.735751200258877 11.444996245168525 0.0 4.802032881959544 -3.7913532712955105 0.0
284 2 8.747077467214652 0.34473776971847725 0.0 3.6983156290720323 -4.951158261448895 0.0
285 2 1.9109349709633334 4.846916966334852 0.0 -2.4272998153978333 4.982711425467939 0.0
286 2 10.07568046355192 7.669795375228697 0.0 -1.8113181818061674 2.553902383702286 0.0
287 1 18.711311534809862 16.48470430775433 0.0 10.95244935850337 0.4724132168828519 0.0
288 1 3.893574635235436 9.590916228101353 0.0 1.7659490373288151 10.402818992743912 0.0
289 1 18.0335887902971 18.71693783387781 0.0 -2.3139770271669273 2.2019340765167885 0.0
290 1 13.72881621351492 0.44667969746112757 0.0 -4.144378827514845 3.3662594856677392 0.0
291 1 10.211071808523306 17.804779288120347 0.0 3.2603122540578475 10.459220256937845 0.0
292 2 19.706045423644206 9.024438122230322 0.0 -3.3127560576552546 1.52312261107268 0.0
293 1 16.524432378716646 9.669818853266746 0.0 24.284743029876974 -16.29344844664362 0.0
294 1 12.789555405156745 3.8096890001423716 0.0 3.097673346071367 -0.3339683109337541 0.0
295 1 13.357491994106205 5.687808435151594 0.0 -0.6777506129685713 -4.619476028344303 0.0
296 1 5.769225424428457 13.256905388676033 0.0 -4.18500418452431 -2.9895837281977204 0.0
297 1 6.450744214406756 5.346770643767591 0.0 -3.5268426510409214 2.083291258667196 0.0
298 1 3.01621449453054 19.305018246147526 0.0 -15.011088957982013 -0.9867770712958398 0.0
299 2 3.8466994939282126 3.5515370193634777 0.0 -0.19643236294469663 -4.007152156213394 0.0
300 2 18.907283808822022 5.453726832492728 0.0 7.25630002155404 13.911933604235612 0.0
301 2 5.231217397696223 12.141105438515543 0.0 0.35034614954635324 -11.552945943713848 0.0
302 2 14.614196674496405 8.846956746387816 0.0 -1.3098844698744971 -7.408896058353782 0.0
303 2 5.5648350450071975 16.87831245876396 0.0 -5.411363615751848 -7.165719637176373 0.0
304 2 13.88637065483861 1.209157907793064 0.0 -2.21246612846943 1.407320308984234 0.0
305 2 4.096939747555997 14.447361125333845 0.0 -1.1115500804252199 -4.062973871450377 0.0
306 2 5.25235649744565 16.118991865886375 0.0 3.1248066158188292 -1.8385960294292312 0.0
307 2 2.7455107688857123 3.937795947324512 0.0 -3.6793523825638017 1.8945426623718002 0.0
308 1 5.917544356811339 15.546511422015353 0.0 -3.2730281343654917 -6.235521211750837 0.0
309 2 2.9375497837962476 17.524037344325855 0.0 1.7877710443048365 -8.546113366494103 0.0
310 1 1.2297879463067782 4.400635601223562 0.0 -8.592145196480422 12.894341889878758 0.0
311 2 16.15739724254473 15.581554345433357 0.0 1.1283983844542962 -3.5629204795161367 0.0
312 1 14.90717820927863 8.114253416069982 0.0 8.813773161891387 -3.733032684118306 0.0
313 1 6.234276081331445 4.08488191784104 0.0 -2.0378378638506622 6.551765879574773 0.0
314 2 15.110784975798655 17.516590834239 0.0 -2.4576545906953307 -5.7714873528805795 0.0
315 2 10.878706710289014 12.323452549073217 0.0 -2.29108503472059 -3.946107434156562 0.0
316 1 8.418242847838645 7.755470274167538 0.0 -10.088336596943801 -2.8267943241954256 0.0
317 2 11.465315410180054 17.8220436345256 0.0 -1.5737092223641138 -13.831679840024506 0.0
318 2 7.543782372980395 17.37191293937368 0.0 -1.0192228339841494 5.5404590390138 0.0
319 1 18.024849887881373 15.932212644335976 0.0 -10.934705025597294 -16.44164205806329 0.0
320 2 17.01496110148294 6.767733350098378 0.0 9.383199020562822 -1.057082571722482 0.0
321 1 10.094455920125469 13.984531539442393 0.0 -5.623138342490632 14.26542455094002 0.0
322 1 17.857742661250366 4.412361586782673 0.0 5.1399264606865955 6.696598404072298 0.0
323 1 8.998128470912167 15.457247730735581 0.0 6.220848325234536 11.197970348275371 0.0
324 2 0.9209477998995638 13.026292113372135 0.0 3.966635165616151 -0.9325536355326847 0.0
325 1 15.036378279612466 16.366352440361332 0.0 0.3119797104377259 -6.252367427308068 0.0
326 1 3.4021858071929687 9.72204154023063 0.0 5.121339712316955 12.7611121058702 0.0
327 2 8.840938867981892 6.67593923871802 0.0 4.638266378792773 -7.47950817433534 0.0
328 1 16.142050287805546 1.0249681164433042 0.0 -8.750356760223507 5.585191686245406 0.0
329 1 16.119688368306843 1.973094509579823 0.0 -5.148405977729736 19.37265230358948 0.0
330 2 4.415413593723039 17.01243753553303 0.0 -3.4375150495017186 -3.537657824634969 0.0
331 2 19.465471691961643 1.9339623811188684 0.0 5.883662176312209 1.5832871695588293 0.0
332 2 4.55092543121802 15.325305449305416 0.0 0.7050326706313683 1.8127406694090769 0.0
333 1 8.087226094419783 10.89827753644257 0.0 -4.737894417982123 -14.996150750073681 0.0
334 1 6.083205761375132 18.307877090567438 0.0 -5.223541968747212 4.554790054195102 0.0
335 1 16.1232128816149 7.655807904450144 0.0 13.32028745257398 13.200402259283784 0.0
336 1 7.512762548085518 4.25376381570136 0.0 9.092292094123875 9.102901756676175 0.0