ITEM: TIMESTEP
0
ITEM: NUMBER OF ATOMS
400
ITEM: BOX BOUNDS xy xz yz pp pp pp
0.0 19.7609 0.0
0.0 19.7609 0.0
0.0 10.0 0.0
ITEM: ATOMS id type x y z vx vy vz
1 1 13.065783694149985 17.013607578433312 0.0 0.8618174516649305 5.447841500909932 0.0
2 2 5.416409281961104 15.933452039682836 0.0 -6.023433785743601 -0.9559810028894513 0.0
3 1 14.014040294456334 0.23971928081688046 0.0 -14.757672019554988 -5.144836346021074 0.0
4 1 7.016814335817051 17.4263111347801 0.0 -15.099914622170084 2.9747105293453675 0.0
5 1 19.026034126026783 14.11868332763866 0.0 -3.628211537462053 7.617771698626518 0.0
6 2 7.479116781713756 8.597304152601076 0.0 4.346778238153178 1.585822939856509 0.0
7 2 12.574386570672754 16.031034785242845 0.0 -10.520642854531625 -8.815521911081463 0.0
8 1 4.244409183532487 6.01128561790631 0.0 -7.653686485387634 6.411401687442432 0.0
9 2 4.467934474226785 0.13599628239265596 0.0 -0.0019391312004116447 1.1160688181695018 0.0
10 1 10.322719614668104 7.207451758261187 0.0 0.07932319884738571 -2.3542403039175173 0.0
11 2 4.129276580910095 17.963266870331545 0.0 -2.2075878779179674 10.945969381073118 0.0
12 1 7.193166468465943 5.512023511073663 0.0 -4.406213433440498 6.819807096373353 0.0
13 2 5.949477558253331 12.484770817513384 0.0 -6.540989100634441 9.83669749622282 0.0
14 2 14.822301259958168 8.046105037037645 0.0 -6.135653923312697 -4.524266424469586 0.0
15 2 18.761162340715 14.803795561562968 0.0 7.317437091115148 5.2039834299638565 0.0
16 1 19.587379762301115 0.46504207264727027 0.0 -13.801983004021146 4.389851625734393 0.0
17 1 2.984516318924805 0.0475438646151253 0.0 -9.73746218249051 -6.71081343538087 0.0
18 2 11.6995600693007 1.184571329180566 0.0 -3.2434227139217766 4.057674366645944 0.0
19 1 14.908337543501467 19.6799753049296 0.0 -6.623682257184873 10.711218450128394 0.0
20 1 7.656562750997995 17.545142186060115 0.0 -12.680199731791394 1.6690471058722052 0.0
21 1 3.1885316849101066 18.334984254169413 0.0 5.385644275954833 7.215184612057455 0.0
22 2 15.38702553163652 14.33241840401863 0.0 4.987528711069858 3.650667528512207 0.0
23 1 16.33049663245928 13.669349204708858 0.0 -3.583470231808759 -2.2676158540457068 0.0
24 1 5.6092767673970005 18.213673588103322 0.0 -10.395498202077942 -4.491236729090311 0.0
25 1 14.535840001043765 2.5578872459656505 0.0 12.96222722610802 -18.542054611485025 0.0
26 1 10.472139335460039 16.805517179561583 0.0 -7.307732172552482 -29.391873049407394 0.0
27 1 19.583525980742476 15.784983570339119 0.0 -0.6662945054248169 -19.223521755269154 0.0
28 1 6.079988569080707 17.902714279745506 0.0 5.666582839373937 11.066625664856495 0.0
29 2 7.650145325548269 4.248028093726264 0.0 -0.36567185405650876 -3.0328116629988977 0.0
30 1 5.039535416266807 5.569231590713054 0.0 -4.393790804280389 -3.0374300907776215 0.0
31 1 15.821144304357771 12.964447364469528 0.0 10.15510643090909 8.601043253183605 0.0
32 2 8.29564780317445 15.726697407691939 0.0 -6.861352331136418 -9.931801381094608 0.0
33 1 15.920327548697804 13.43289492752262 0.0 -8.294080703843267 -3.9461150099609523 0.0
34 1 4.184767404054263 9.310217790954534 0.0 -5.43399654396496 -4.6009561482235 0.0
35 1 5.306088221328539 3.472238968444791 0.0 18.04848790411984 -0.3624787678157583 0.0
36 2 1.357738665756973 17.887019569831352 0.0 9.782043109569807 -4.702017221758689 0.0
37 1 13.603797606297311 11.492811596267382 0.0 2.910664301727819 -8.519910663528737 0.0
38 2 15.656146325365851 16.880748434096773 0.0 -5.266626235724166 7.512565329049731 0.0
39 2 6.392844037747812 2.446940999651069 0.0 5.503023796068724 2.2103873520655064 0.0
40 1 2.4252031943326693 15.44572749798614 0.0 1.2662403740395924 -3.0318644430140274 0.0
41 2 6.49980339617909 13.796045737163979 0.0 -4.758362323121828 1.425515188842747 0.0
42 1 14.076169939036378 2.9485217878203938 0.0 3.941179627497728 -0.6219294540919306 0.0
43 1 14.031200050766708 18.3457030815481 0.0 7.026628419259906 -8.168172705374921 0.0
44 2 16.956445369582084 0.4906214504419338 0.0 2.7971592959737057 3.7321069695823375 0.0
45 1 17.365266270038138 4.5498290376850905 0.0 1.2838498727207308 -0.29150500852602057 0.0
46 1 16.399266448013343 6.059748492762688 0.0 6.050483654612036 -1.2906511677460097 0.0
47 2 13.32794652577562 13.008783734325128 0.0 -5.353723690856068 -4.274677639320893 0.0
48 2 11.159384278802614 4.277918531425274 0.0 3.754829165494405 1.7055872441774729 0.0
49 1 18.790865320821904 2.940381221231669 0.0 6.892314200527405 17.742788790673185 0.0
50 2 7.335400047926115 7.6098444194080255 0.0 0.6669262270644526 -0.14288864418107045 0.0
51 1 12.554077809017382 8.678563560227648 0.0 -0.2873923667556055 13.412105994119957 0.0
52 2 8.934078837293153 8.315661253660972 0.0 -4.754797145782077 -4.686985561172119 0.0
53 2 12.661528523290173 1.0034211405502016 0.0 -5.439037876491806 -3.6604580414918195 0.0
54 1 14.377551590894134 3.7033895267105184 0.0 2.7349504070912767 -10.067619294428583 0.0
55 1 18.34421191056219 18.068373087487856 0.0 -13.151543812609344 13.050076238659063 0.0
56 1 11.771338188075628 9.758978428690103 0.0 -4.221620269405164 5.314277035522146 0.0
57 1 2.2704172577285515 17.984721328545522 0.0 -2.2432985810756447 -5.791641614059876 0.0
58 2 14.015078755240314 5.700542213651665 0.0 -13.836905036808131 6.237129371863001 0.0
59 2 10.719550797687518 9.849690271167658 0.0 1.1756415993081324 -4.030619761822786 0.0
60 1 3.433038791239604 5.680965929588179 0.0 4.493189543483724 6.432857640711369 0.0
61 2 8.851504388954117 18.444073864144436 0.0 0.7285171777471967 3.722703492780795 0.0
62 1 5.424886664866991 0.3178302494593617 0.0 4.376962560541349 5.36172865284447 0.0
63 1 14.359259011834597 17.38201457620439 0.0 3.573882507029629 0.5401090102893266 0.0
64 2 11.131942000687772 8.880766687905874 0.0 8.579844962869647 -1.3687190246882808 0.0
65 1 15.729770104410344 15.36830740613242 0.0 4.176581687313854 7.056897032546344 0.0
66 2 18.340137121927405 0.10412557586848013 0.0 8.13225282314643 -4.3658667284284265 0.0
67 1 8.059821700685733 6.084991630147994 0.0 -7.916568216167356 15.76704688354227 0.0
68 2 5.6601069006567215 11.485749135887344 0.0 2.030584840580143 0.49628650539457025 0.0
69 2 15.501682066578667 2.8957870756251127 0.0 -5.149967309094491 2.2187954834713133 0.0
70 1 2.421823974391643 9.057527899155811 0.0 14.36974259713933 -2.7335732687401695 0.0
71 1 7.162400447604126 1.02530017838717 0.0 12.017441817715683 0.34672911149134167 0.0
72 1 9.017753335802201 4.32512903850199 0.0 6.7717912681324615 -17.981303583899177 0.0
73 1 3.3203571680312716 4.258826964149583 0.0 -7.981502245323694 7.165088132980256 0.0
74 1 0.9830212930311361 4.115947398450065 0.0 -7.060514493397691 16.302684307071605 0.0
75 2 16.588935776827487 15.14284416420223 0.0 7.494709496854641 -2.814328881549572 0.0
76 1 17.14641263113113 2.3786459785819094 0.0 -4.193510663353625 8.341381226452654 0.0
77 1 17.55975660067367 7.236236850407187 0.0 0.8300729880074875 6.344854003929216 0.0
78 2 9.684049178089747 2.128496329452989 0.0 -10.351298935431654 5.537987325694718 0.0
79 1 12.73699032285856 12.236491738831853 0.0 11.97274008756025 0.9444188143689547 0.0
80 2 15.891948645257328 4.760589152777025 0.0 0.03857212111318252 1.90351257036585 0.0
81 1 18.38320690025111 9.690024135703641 0.0 4.935407059614771 8.734469734694438 0.0
82 2 1.6560369202669256 0.08607832241759411 0.0 1.472222993116077 -7.0504934361637 0.0
83 1 0.825266606491551 14.574464072372422 0.0 0.6481358879192447 -2.3208735325824663 0.0
84 2 0.060154927461190645 8.501166054089426 0.0 -2.261009577636107 -2.9383878024770884 0.0
85 1 6.25202499364476 16.815438132845447 0.0 -0.31920995607167746 6.2083486492500395 0.0
86 1 2.827567957226709 4.835049048078082 0.0 -11.56822951412002 0.01713850655717237 0.0
87 1 5.353371091389458 17.719264485437204 0.0 1.1482810965053272 3.5786610863841166 0.0
88 2 11.50828802728812 10.916680295492222 0.0 -0.579154736902987 7.447769888003256 0.0
89 1 3.3180992693324405 1.0661112551864744 0.0 -2.2954643255060505 -5.783085837885556 0.0
90 2 17.340049689172716 14.303083887212363 0.0 -6.2448583739376575 -5.221178460247217 0.0
91 2 8.970270529741743 14.637578697530525 0.0 -1.6900260987393376 8.550410781884079 0.0
92 1 15.791793698943962 9.115667444780742 0.0 -14.590220389502441 11.65538318340938 0.0
93 1 19.33130748694732 13.410988940884788 0.0 7.0467391213759285 0.6020089741369334 0.0
94 1 1.7116258887727887 16.07406220732379 0.0 -1.9698975904967702 -21.131848284260148 0.0
95 2 13.585015843550789 9.38473099145542 0.0 2.8785649369679707 -3.474238975013588 0.0
96 2 8.785874238763451 9.432417197431944 0.0 -4.924444954386874 1.6862905573632367 0.0
97 1 2.6184160792360562 1.2285257870910373 0.0 -20.154629013954445 -5.8200781029896955 0.0
98 2 5.077298569346429 1.1938140343095862 0.0 -5.206466787171856 0.007965965009317129 0.0
99 1 16.327269270239544 2.73246135122184 0.0 -20.71433162547033 4.858551209968567 0.0
100 1 13.546338651406137 16.15014705320201 0.0 5.930007282292781 -3.283238280549903 0.0
101 1 8.023933757157078 13.911070778430703 0.0 -10.919245048873826 -4.936180133673344 0.0
102 1 17.19923414239565 8.064108161423379 0.0 -0.7179017579354595 -7.693819412508098 0.0
103 1 12.504691815711372 17.369740113172956 0.0 -6.997285043824988 6.334421221339547 0.0
104 2 15.857079283875839 7.953481001441004 0.0 5.182581728152918 -4.980929428299946 0.0
105 1 12.14245410939945 10.235123877891484 0.0 -11.530365094044367 4.784550431577381 0.0
106 1 16.84689798621946 13.626336964565677 0.0 5.532896567457576 4.992849844531919 0.0
107 1 10.188644821874922 13.976784873935067 0.0 1.5641218487136668 -2.71989136874143 0.0
108 2 17.11816840959749 9.112828503938154 0.0 -8.297097341346646 15.871662563356868 0.0
109 1 13.497051994704671 2.4761274275767495 0.0 -5.614812969392097 6.089276622537096 0.0
110 2 13.600984228088 1.4825914656521468 0.0 14.967665509748906 3.1626299308781007 0.0
111 1 8.133412718722235 2.5352349133047767 0.0 6.124394843857782 -0.07284912898422716 0.0
112 1 7.868722031089023 11.787641560206204 0.0 14.710567653781377 6.874539586543735 0.0
113 1 7.517047373751655 6.063312193606968 0.0 -5.027381651717953 9.60350319069669 0.0
114 1 13.90730389813086 3.94601421621121 0.0 2.532131923519438 -17.141869179497462 0.0
115 1 5.233815317232745 2.1278931956550933 0.0 6.3871568514393156 -9.35145595764244 0.0
116 2 6.7012617085567205 6.697923119529801 0.0 1.3822856152410414 0.30227783463173463 0.0
117 2 17.126762750193542 3.26767129260813 0.0 6.088441178909996 8.62665276608935 0.0
118 1 16.323172463275185 3.2838266507567084 0.0 15.837739766282212 -8.966635549399975 0.0
119 1 14.609731892254755 18.46062910684947 0.0 -2.546736109387225 -2.9109470681471987 0.0
120 2 3.86415458562799 8.038072086896948 0.0 -2.325566408595513 6.945798307170276 0.0
121 2 2.467884695077932 11.49264530073152 0.0 0.8383608041109943 -1.7804176371046758 0.0
122 1 9.795569923802871 3.953479345413105 0.0 5.487838384342744 -12.339964615604284 0.0
123 2 10.84953841530303 11.745188396249668 0.0 -2.1711902598490957 7.407854903089965 0.0
124 2 15.116975841362835 17.80568347732003 0.0 3.220983864669318 2.623314995600519 0.0
125 2 18.58397573786628 19.041796092021876 0.0 -0.27863453609855965 -2.061900227779875 0.0
126 2 4.3467007301270675 13.234584688871081 0.0 13.589909163111974 -11.606395934681993 0.0
127 2 10.480517179084211 8.051427893634921 0.0 0.9671528829148652 -4.103368770459984 0.0
128 2 1.664395424522212 5.177512911045667 0.0 9.839904104464344 2.4045616250943733 0.0
129 2 4.226204489672505 2.0282491154274673 0.0 -6.28021408736426 6.550086820033168 0.0
130 1 5.458869534784167 16.954347412043603 0.0 4.606335874571055 -3.416925675306577 0.0
131 1 2.3451453773242568 19.04775852369736 0.0 -9.156171876772651 0.12611063331442338 0.0
132 1 12.270962749261308 4.672912532977875 0.0 2.5168202174929095 -9.302490966082898 0.0
133 2 8.501767952560442 10.236638047953074 0.0 9.277513415426307 -14.595008523995997 0.0
134 2 14.527408706659752 15.340884061290874 0.0 6.616992344405812 -5.970671066370525 0.0
135 2 6.09253098290698 1.336287459131246 0.0 1.7250575896141314 5.303320457513859 0.0
136 1 17.482502687089376 13.371524073398557 0.0 5.28050186293373 12.704345600094737 0.0
137 2 8.525393281551443 11.229951756150477 0.0 7.980109779349746 -3.793852912724656 0.0
138 1 7.68081300453748 6.513578496834522 0.0 -0.7603035475387805 -8.377448218446677 0.0
139 1 17.145751859318494 18.31229790242987 0.0 5.582461325977037 3.002177719983924 0.0
140 2 9.74218836937483 13.071952970475955 0.0 4.277593301335838 -5.322120888455636 0.0
141 2 7.475659752637377 16.681735676338516 0.0 0.20896404923639036 -6.556042131126688 0.0
142 2 11.155319443438303 0.38983132278660343 0.0 -1.2037494381893528 -6.223104847356912 0.0
143 1 8.383952542435983 4.8365273396891855 0.0 1.0052066672896942 -12.132095584080322 0.0
144 1 12.369173735677427 3.522296127584131 0.0 -6.797602591159668 9.927906526915056 0.0
145 1 0.975824337581035 12.142007460359316 0.0 11.851199950233744 -8.576792811698772 0.0
146 2 19.569362813463325 12.454166643630206 0.0 1.526730000781707 -3.0381096838866077 0.0
147 2 16.23219900387193 10.108734441295177 0.0 -4.256114969412755 -2.2222110380642643 0.0
148 2 9.276213159455674 2.9822555526044696 0.0 -0.9306925460956353 -1.4557523136006503 0.0
149 2 8.191463131654007 19.705351813804253 0.0 -4.282236638206485 -4.180950805964875 0.0
150 2 14.709988943374263 5.144124139514168 0.0 -8.715804859604402 -6.4256353309947345 0.0
151 2 19.733089625199085 4.808309831136849 0.0 -2.1749124232496 -0.132042692482345 0.0
152 1 3.9026782685026387 1.1814956132254701 0.0 3.241692795899316 -6.859852153002662 0.0
153 2 16.087592787491385 1.2804846219012158 0.0 -8.020560185112195 2.698629624460179 0.0
154 2 18.097283529846077 3.760801361601585 0.0 6.003941103844767 5.736796559022285 0.0
155 1 13.792560400497756 15.41515918684251 0.0 7.225079495235564 4.07510028301525 0.0
156 1 18.767561301179164 11.592163697970513 0.0 -2.812774508211403 14.065057290466946 0.0
157 2 5.033512605928847 10.32218780972261 0.0 -3.470645859403762 -2.475922357153089 0.0
158 2 4.42455569483743 4.217613325259065 0.0 -3.3245244545100454 -9.97542750760912 0.0
159 1 12.857568373676308 19.5540956835691 0.0 10.122262428848552 -0.6629502534095058 0.0
160 1 16.869457342728126 4.479245831207328 0.0 -6.765328205386688 8.09714199066048 0.0
161 2 7.32074826464191 18.351128262020758 0.0 -5.62458108914053 2.169955243521347 0.0
162 1 2.856312862007196 5.9692030197676225 0.0 13.806027438692558 10.956845814243042 0.0
163 2 15.962700104339818 11.31270152137002 0.0 -1.6121617436256659 2.1038355429857596 0.0
164 1 11.325985626807958 17.073045903595226 0.0 -0.3680378483543575 -19.58638693990898 0.0
165 2 2.488595201634472 3.3255178387837967 0.0 3.0711797406402996 0.11529201068098946 0.0
166 1 18.88611682162925 3.5360739556959664 0.0 1.0857652873570767 4.266191829136044 0.0
167 2 1.2578624418812059 2.773050750249442 0.0 -5.174958743464096 -2.129267614103947 0.0
168 1 1.32828845485115 9.501302458807752 0.0 -4.887953151342892 7.352044863561643 0.0
169 1 0.8180749021238152 9.307809723520755 0.0 -0.6049766313912952 -11.108029106730493 0.0
170 1 9.081570578034249 0.8771220906850534 0.0 -11.250007991118338 6.013617562719925 0.0
171 1 16.525774954163648 7.440926706520913 0.0 11.187626626639748 10.330819489863636 0.0
172 1 1.8075282537183694 1.2882066964704133 0.0 16.419452728225654 16.13500489383066 0.0
173 2 12.020454632241355 14.011367799766527 0.0 -6.687723398101282 1.9165484829827337 0.0
174 1 16.60899054493204 6.634503342519906 0.0 -2.1600340585621933 14.30454281916726 0.0
175 2 0.023956180045723627 18.152280278569776 0.0 3.876786599657663 7.262633800166136 0.0
176 2 10.283312492424228 10.610575385500924 0.0 -0.24077413020180294 3.1688869280020944 0.0
177 1 1.2816222995662265 8.732191079663103 0.0 3.462048177596405 2.308278132901451 0.0
178 1 12.122885720457434 7.486940323313116 0.0 11.718284636830697 7.005689963651319 0.0
179 2 2.553515566908819 14.30204816977282 0.0 7.492188728029526 -4.340572796720352 0.0
180 2 4.755081484463351 11.351705350264272 0.0 3.0606270217888465 3.0502293842535932 0.0
181 1 13.312171995551576 15.354802781016199 0.0 18.572004241642475 -0.6448581527034759 0.0
182 2 0.738307608869942 6.412730948597016 0.0 7.259377254512091 -4.217987762309068 0.0
183 1 0.2671440939331123 9.360944032457914 0.0 8.955380867996444 13.493460950021776 0.0
184 1 13.441629718434497 0.41659820304608963 0.0 -4.162511404776722 -6.072710354903158 0.0
185 1 18.965114941198344 10.415671243795273 0.0 -4.527108537422873 -7.297512663151027 0.0
186 1 18.49930071399927 4.504729721605373 0.0 -9.353692588390638 -2.694925915440261 0.0
187 1 11.004506742579897 14.427144372768158 0.0 2.624816713070326 -1.3022256977495519 0.0
188 1 3.4339440440113624 13.591005585633058 0.0 5.964453035242308 -5.858343765899505 0.0
189 2 15.388170300528003 1.9295900030858257 0.0 -9.466648379537789 2.8166489449431404 0.0
190 1 19.651345433108013 14.044702927118948 0.0 -0.36587246245905186 -0.07619767119528287 0.0
191 2 9.341351219991544 15.485754595934972 0.0 -8.321369181286528 -2.5167855212290116 0.0
192 2 4.424485500814259 15.089411664482009 0.0 -3.8640516969986485 -10.489736999889253 0.0
193 1 7.52139901404707 9.542443991860992 0.0 2.398644720938963 13.283871233029654 0.0
194 1 8.703765792377805 2.1476061353057014 0.0 -8.616894988080489 -2.1661181802403435 0.0
195 2 12.364194456822972 13.165813470575928 0.0 -1.66477823662051 6.540850907306869 0.0
196 1 8.146975015021969 6.642588766240648 0.0 -17.881603232003638 2.4979893303425147 0.0
197 1 11.980857175858045 18.166091864948342 0.0 -5.084105737119412 2.1662043026260416 0.0
198 2 8.65587069597479 3.589350843315305 0.0 5.687878761423406 -3.6403413483686267 0.0
199 2 18.910042057295495 1.6212468678354162 0.0 -12.628723218884266 3.0389006924043374 0.0
200 1 15.123776204944484 3.70630603338613 0.0 7.747182482821509 1.3564874863393035 0.0
201 2 0.36907489090992107 13.418328654955818 0.0 9.235421501932127 -6.103925539737302 0.0
202 2 9.958103741883557 18.183638586483898 0.0 6.476786221704313 11.725186189917425 0.0
203 2 11.062037604011712 7.180511493009204 0.0 -1.0516020978093916 7.948596777651978 0.0
204 1 11.20434482593994 18.592334730465783 0.0 -5.849597257823171 -10.587450535270733 0.0
205 2 1.5990353526326633 13.858466744780747 0.0 -2.739016730130238 0.6241853019273512 0.0
206 1 18.002572338572413 4.669742723945838 0.0 6.298516919803258 2.539835244390426 0.0
207 1 3.1660879518951757 6.611071482568003 0.0 1.458916967810162 0.32156294246290684 0.0
208 2 17.418581843032214 11.138556095377998 0.0 18.33326276225429 5.201582454252804 0.0
209 1 16.913534191398888 16.95951219248576 0.0 -6.6174599620822265 -11.724483356156034 0.0
210 1 16.284707403800546 3.775073246590546 0.0 0.6334884256829505 -1.126297075232437 0.0
211 1 13.379946985509346 12.188129414691874 0.0 21.58266533521244 -5.203172736982778 0.0
212 1 13.21932220430752 10.02779068542022 0.0 2.312570753705291 -11.55880307319307 0.0
213 2 17.16990080776858 1.6224787601455817 0.0 -0.09913004181079833 2.0572252005459988 0.0
214 1 0.9059240714544996 5.346185642531741 0.0 3.381522804985094 -12.704274726573622 0.0
215 1 10.072525224947606 9.030593734689722 0.0 6.458515693803396 3.7098981202327437 0.0
216 1 3.971952533069077 18.764860083303454 0.0 -12.835825389150706 6.454146564826627 0.0
217 1 9.252674038233707 1.3892793409509527 0.0 -7.735980494543796 -1.4499399790246652 0.0
218 1 2.9036616819981576 19.315042541844697 0.0 18.02265715138586 19.127757416731313 0.0
219 1 0.16101434680775262 7.734740749757087 0.0 -16.41904380961536 -14.303617159570924 0.0
220 1 12.42170560563549 18.366877462667862 0.0 2.2804252693650375 -13.440912532813579 0.0
221 2 4.15105574205058 10.05675036726822 0.0 -0.9895333267395667 -2.5077327141858716 0.0
222 2 0.8318290313908537 15.979339664885456 0.0 -0.32841146593570647 1.559038183556186 0.0
223 1 2.254890844953785 6.5447497014579215 0.0 -4.813693210907547 15.022276983933022 0.0
224 1 14.582599389367617 8.9495155247899 0.0 18.912068344701037 -1.5858193695313056 0.0
225 1 8.585889223519867 17.17923379954371 0.0 -9.272987796177171 -8.061037338310689 0.0
226 1 1.6037718760058783 14.705945300759797 0.0 2.042502717074634 -6.281876382379384 0.0
227 1 18.33379788771295 13.646759952617607 0.0 0.6818763726284037 -5.263751701688848 0.0
228 1 2.4793000562352177 0.42307638334871256 0.0 -4.86322188387064 7.432778801840772 0.0
229 2 6.662797107676227 9.624030080268112 0.0 2.086957633225068 11.633693767705825 0.0
230 1 13.236862722984204 3.692416786799864 0.0 -3.2672597592157167 -10.592578226879729 0.0
231 1 14.88831732332585 9.459373133274772 0.0 3.763429800633998 0.560734789381195 0.0
232 2 18.411180588828675 6.223893479963986 0.0 14.01553539824449 -1.7308494319728138 0.0
233 2 3.0190178718991554 8.373169033449365 0.0 3.013242416510005 -0.884148689095171 0.0
234 1 14.066374485067188 11.26625422674964 0.0 8.761042047237037 -9.859017369386534 0.0
235 1 17.630578547856224 18.013668435626123 0.0 -11.752243345756701 -6.647318926034655 0.0
236 1 3.3829671234068157 4.936951525393279 0.0 -1.334988492427317 -10.063342778776168 0.0
237 2 8.4378663228609 13.0673153032628 0.0 1.9105386530472515 -9.274690929808948 0.0
238 2 18.004088581141776 2.4699817538379865 0.0 -6.755745410627281 3.344484443929679 0.0
239 1 2.0139645658488132 2.09362092246774 0.0 12.22420246120894 14.42315766752929 0.0
240 1 1.6601485313477362 4.239321366013288 0.0 -8.097314612105109 -4.0085915468369056 0.0
241 1 13.948890694865991 8.188383468499026 0.0 -4.824944032742276 21.087014410853428 0.0
242 2 5.287529356664787 14.911841904943119 0.0 -0.8947721709648795 -6.299469221545022 0.0
243 1 5.102644426376814 6.16172835739217 0.0 -6.7580569850469825 8.20025318781969 0.0
244 2 3.316308834526322 15.03817780344551 0.0 6.158805826515338 2.259150143616066 0.0
245 2 12.369337741393228 1.8600867591025316 0.0 10.05359508009191 14.110747925992527 0.0
246 2 0.5352549917380613 17.153531265492997 0.0 0.631231102386996 7.4527449336211635 0.0
247 1 1.331613489486639 15.062638019632079 0.0 -10.274683337050016 3.4080484504192947 0.0
248 2 16.53399309246683 16.056177563705397 0.0 4.385566228462597 -5.302705341732214 0.0
249 2 3.337758108964199 9.750118162759554 0.0 -6.34803069536816 2.422115632004886 0.0
250 2 5.447722322787421 13.822222250407298 0.0 -4.099204906203539 1.9160233620312912 0.0
251 1 19.54447945504223 14.661362727843951 0.0 2.010343701580209 30.390101742500207 0.0
252 2 0.0887641347747666 11.29305119139341 0.0 4.648680881287987 0.16334453484501643 0.0
253 1 12.790002808656228 9.686099579124004 0.0 -4.424514926268463 0.7740404913805353 0.0
254 1 8.842025220926578 0.4366878862683509 0.0 -17.800025624196106 -1.3470948905664428 0.0
255 1 19.736336584005226 1.0627701954459083 0.0 17.877403886231797 6.446222145275742 0.0
256 2 5.43400355449555 4.3523988744376245 0.0 2.469962636777809 -4.956171702603784 0.0
257 1 7.684903149415685 0.9276700027963105 0.0 12.41132523050917 3.5266545718449698 0.0
258 2 3.1904984850536997 10.638897794256382 0.0 -5.962021825755741 6.744295219155542 0.0
259 2 11.58567061444563 6.208173270917234 0.0 -7.0466207932474605 2.3106279022705087 0.0
260 2 9.164418451593006 6.659960646479054 0.0 6.6747489042411265 -8.719429106996946 0.0
261 2 16.699794162449365 12.664357198922355 0.0 -0.6078258806970652 1.790840973389937 0.0
262 1 4.93892098756865 18.456271467976833 0.0 -2.272678274042222 3.346787521465665 0.0
263 2 17.636071750147874 19.01919501579387 0.0 7.617615275444383 -0.0808637939726868 0.0
264 2 11.887953162937261 19.356070757317127 0.0 -3.476033084677117 -7.318148204613215 0.0
265 1 13.156002011143968 4.4789177559371325 0.0 9.511688348527432 4.25778273809149 0.0
266 2 3.226962444043827 16.21495930810447 0.0 -4.927247706425426 -5.809111667396302 0.0
267 2 19.62412855920894 3.3568041362051737 0.0 -1.4921656385717241 0.8242039382493291 0.0
268 1 6.889728960036724 12.685778157128135 0.0 6.511210725864795 -4.428111902380084 0.0
269 2 17.53901435446256 10.081696698070827 0.0 9.89587447807122 -0.8706726141093458 0.0
270 2 9.164857417159018 12.127407582163615 0.0 8.286789813929879 -8.813641913705151 0.0
271 2 15.494294038586565 5.746117535246178 0.0 9.722978472503984 -8.055200401058325 0.0
272 1 11.623079346479772 17.67800075641971 0.0 10.549571998147181 -7.447112471694845 0.0
273 2 1.0933762539565053 11.209233731026456 0.0 -9.206531719204639 12.400244116646444 0.0
274 2 1.613094864211734 7.636242917862132 0.0 -1.956060223719462 -2.8029969446807708 0.0
275 1 15.593896226699732 6.82030407554328 0.0 -5.444959579514845 8.63259836556555 0.0
276 1 10.43129913047352 6.645793720726655 0.0 0.7052624046816477 -17.405568600381606 0.0
277 1 13.935012465936047 10.127070856004082 0.0 -8.648518740042034 1.8798608823799086 0.0
278 2 18.758816918195624 16.00623862963657 0.0 -3.379621081056691 -1.563404455296349 0.0
279 1 1.8177329974906697 8.613129422572863 0.0 3.1846220642630643 -4.13329219415358 0.0
280 2 13.970976583966573 14.368223207515388 0.0 3.7230506343030965 6.042090598169754 0.0
281 2 4.1624316603000056 16.651097327447935 0.0 -4.603810023399806 -6.082887761254178 0.0
282 1 1.0960642727206684 13.000155615301457 0.0 -6.075997631858487 -1.5521730553647874 0.0
283 2 18.93952340363094 17.392989637492207 0.0 -1.647412872507636 -4.000947026434888 0.0
284 2 9.65474441926718 5.365530623800555 0.0 -12.754555412441032 -7.025979536545414 0.0
285 2 10.127704274281637 15.98044403033577 0.0 8.376226673504565 -5.812395934265533 0.0
286 2 13.167836057718679 18.699398749494122 0.0 -5.639172503690936 -1.3209030542126508 0.0
287 1 13.015394938861364 2.9866812395148306 0.0 0.5222957239527155 -13.560531811819486 0.0
288 1 15.122277592223337 16.107550461230538 0.0 -6.559976070524483 -9.415252893018643 0.0
289 1 2.2402436630842284 12.608070759953872 0.0 1.1170980221376774 -0.05186499208604784 0.0
290 1 13.93269509277693 4.611234850289252 0.0 -8.672429748675327 -4.7747001515660665 0.0
291 1 17.737804909207185 12.596380357289796 0.0 -10.236882524301238 1.6109654534779403 0.0
292 2 14.456724093394406 12.744385829858354 0.0 9.299492801207487 2.1912661120290333 0.0
293 1 15.148735627767937 9.950309181025409 0.0 -11.785543362236353 -0.6943618143018607 0.0
294 1 18.91687297603915 6.793940204206414 0.0 -8.959070614927668 11.650952336762797 0.0
295 1 6.943083914890065 15.561807691188584 0.0 -8.219377754484295 8.54735423680765 0.0
296 1 3.227088737376813 12.909121388680317 0.0 14.45407516859061 7.7668959166928895 0.0
297 1 3.0406133711571 17.793496643128876 0.0 -0.6860708080394018 3.033284778499209 0.0
298 1 13.210071540210533 5.537836895527147 0.0 -6.0073327578263225 -0.2563728203668354 0.0
299 2 2.9164007398520786 1.9810310025397264 0.0 -11.740977476206206 -3.2648850688589763 0.0
300 2 1.2119116537883403 18.793955710975197 0.0 11.326615052686408 -0.8967188645261466 0.0
301 2 15.922763663102373 0.022978862851290624 0.0 -18.383340684682643 2.909710166671392 0.0
302 2 15.35321410905882 18.812622768649405 0.0 -14.93361299712656 -1.5391290838910792 0.0
303 2 8.32913337866726 7.495770214584852 0.0 8.47800268573765 -1.8637764661377236 0.0
304 2 10.677297386787687 12.633499318429008 0.0 1.7676543306932102 -7.208315160489205 0.0
305 2 3.7121102986322327 14.269722700122447 0.0 -5.171983561932469 0.07268783372421433 0.0
306 2 18.75083824039709 12.61430727768654 0.0 -6.650052696537593 0.7321138382382787 0.0
307 2 3.9808370752917894 10.852510228530486 0.0 -4.622695502671807 -8.413886646433763 0.0
308 1 18.71452108969165 0.8041961059448535 0.0 -6.680848134386279 5.229590305115145 0.0
309 2 10.643894582627622 17.82878770361736 0.0 2.8170631384185136 0.6732878232305042 0.0
310 1 14.552393152614275 11.682233662736285 0.0 2.756292094626904 4.369436707682221 0.0
311 2 17.962417511388328 1.1617234463460977 0.0 1.469982840591208 -2.3857189989396925 0.0
312 1 18.871338311249758 8.345837415112332 0.0 1.0311923633843711 -10.774629810413105 0.0
313 1 14.25274557188348 0.731426846417964 0.0 -3.7964054774872773 15.018624124112389 0.0
314 2 3.893334885637685 3.274883648001726 0.0 1.6228535756743148 2.6244546217037934 0.0
315 2 11.357776302449345 13.351670984116982 0.0 10.001375411421767 3.7707887996249476 0.0
316 1 8.55373275046873 16.580366753125308 0.0 3.1171441727206943 -0.5080944498772139 0.0
317 2 9.665516895584101 9.844306655714124 0.0 2.219938091078869 8.081475872012822 0.0
318 2 16.603396740341726 5.2793430681052484 0.0 -6.763252247718615 -0.20854626429266473 0.0
319 1 3.662118852942552 6.126997941093224 0.0 6.521306595926001 -0.613146838007116 0.0
320 2 18.006801486136336 15.535531141737524 0.0 -5.80403722744944 4.440539487021536 0.0
321 1 5.127702695032547 7.530382317255684 0.0 -12.164978257881165 5.378562874187029 0.0
322 1 17.979907250210687 8.724972537015585 0.0 -16.69344429637487 4.0879745924275115 0.0
323 1 2.1199867383353492 15.091482513070273 0.0 6.080365468633842 10.539596387258511 0.0
324 2 0.7420763922686737 1.5047234503771476 0.0 -3.3910953253915475 -8.026264766574302 0.0
325 1 11.279905751035697 5.246419057655038 0.0 5.037086950754388 7.905329878250036 0.0
326 1 7.406818513886911 15.903628746514185 0.0 -4.5616349923311 -4.812366102248878 0.0
327 2 19.708657788828326 2.0732930457435734 0.0 0.7906153547278126 1.4625368957382907 0.0
328 1 12.943956981748592 5.013035227913928 0.0 4.322596635932698 -1.4226786415711732 0.0
329 1 7.847830123632268 1.4891969999555787 0.0 7.391149891629347 -4.517612781258371 0.0
330 2 14.221041906974476 19.162064964750016 0.0 4.9480785356980155 5.317234143200909 0.0
331 2 3.536114548722352 11.714832027934735 0.0 -0.9398388226649186 -1.0120290630084536 0.0
332 2 6.837770002711346 11.15635461878928 0.0 2.396762061513182 -0.9391496510224694 0.0
333 1 18.892240916114794 11.036963727880087 0.0 -1.811018918414499 -5.787205610614194 0.0
334 1 2.5819390982856274 13.527310013131874 0.0 -1.654676159140743 -7.822272496354944 0.0
335 1 15.88416708496986 17.81129460880224 0.0 19.424183373578185 -0.3469087680726431 0.0
336 1 3.6768981567721117 0.40346845123135905 0.0 -5.197489861727243 0.8613015207022434 0.0