ITEM: TIMESTEP
0
ITEM: NUMBER OF ATOMS
400
ITEM: BOX BOUNDS xy xz yz pp pp pp
0.0 19.7609 0.0
0.0 19.7609 0.0
0.0 10.0 0.0
ITEM: ATOMS id type x y z vx vy vz
1 1 4.709357981943291 6.763145469935143 0.0 28.042538846983454 9.903115344309057 0.0
2 2 8.992155160807446 11.28779767956519 0.0 -8.807673268021688 1.5498275527956074 0.0
3 1 9.121806111974683 1.8290939070576464 0.0 1.8898607846593982 5.846890176529929 0.0
4 1 13.462786279078436 1.7439826774731797 0.0 7.136223682774312 9.042433543888933 0.0
5 1 7.4959605073297295 3.0743589566530005 0.0 5.4665438572211835 1.9770267393379697 0.0
6 2 2.139896974892189 7.7819519751772 0.0 -1.7756973408861685 4.389005368533892 0.0
7 2 10.05208659786412 15.12436574542658 0.0 -8.87830897787602 -0.9759148182291815 0.0
8 1 1.9446417608386104 6.417291845516607 0.0 8.195827765327829 2.5187976208730203 0.0
9 2 3.5883731745972955 18.7688513754458 0.0 -4.008036098656805 1.9001340229751755 0.0
10 1 8.356513290756615 19.40345640717459 0.0 -8.819369772439872 10.646165434646516 0.0
11 2 8.460076373760025 1.1912152778165317 0.0 2.9898299823371497 -2.121498042791515 0.0
12 1 17.363106890760083 3.1441670858178 0.0 2.762481766983923 13.444775205901786 0.0
13 2 16.05878914491705 6.972706985847523 0.0 2.2866892569184176 0.6758005659053035 0.0
14 2 11.252840322092462 2.1945830436783047 0.0 7.958189558160714 12.860025550347242 0.0
15 2 11.08733685450875 10.487442306332783 0.0 4.743723435439918 -7.137755751237095 0.0
16 1 0.3982541685822141 6.229567053335952 0.0 -5.4433058605950455 1.419724127513996 0.0
17 1 9.255112560689486 7.089995337082495 0.0 1.7958457207596503 -3.492662833701736 0.0
18 2 0.5561136028480349 11.081224289411438 0.0 6.182631622760757 -5.034381607546526 0.0
19 1 12.034906994652683 4.971643617592743 0.0 -11.682966801394961 -3.992954603936901 0.0
20 1 18.64768892543809 4.5796692986950305 0.0 -3.708806597652974 -3.4306371663796575 0.0
21 1 4.7157025810238435 17.21652139291158 0.0 11.598438897092278 -16.96402719799301 0.0
22 2 18.15087714415558 3.3291945882969305 0.0 -9.653982288854351 -0.2566808699447429 0.0
23 1 19.484811848759872 1.2766913679062097 0.0 7.978733225528886 -5.858631087568027 0.0
24 1 5.18739899649933 10.320660204827028 0.0 -1.662177560619421 2.2395914050166996 0.0
25 1 17.22561145346783 15.106421025477273 0.0 3.354047465501606 0.46410465483486574 0.0
26 1 17.23574737467326 9.35174451104704 0.0 1.0491827335627035 -11.361913239472717 0.0
27 1 1.3667495110302683 6.770995828689244 0.0 14.719707139656055 -3.6162354547920805 0.0
28 1 19.08379629839619 5.629618017992118 0.0 5.54928054811977 9.498045535474244 0.0
29 2 17.130677833099213 6.15552626870748 0.0 3.939837055649449 1.0966939372075353 0.0
30 1 19.714981882287802 13.388273678821509 0.0 9.04857044616934 -5.052393597470883 0.0
31 1 0.4018567280120133 16.850107482907898 0.0 18.57028001893568 -12.362426618602093 0.0
32 2 14.012379232136842 19.395468222418305 0.0 8.592001796638439 -3.128970208463185 0.0
33 1 10.444518798725973 7.858676482239283 0.0 -14.642235830677667 13.567803007904843 0.0
34 1 1.7883562621685638 15.667979647438036 0.0 0.4404745765002905 8.880218971952047 0.0
35 1 13.281338077316251 12.266373565305443 0.0 -6.6105478279709535 -10.17923960355685 0.0
36 2 14.395908782852329 2.010687012699815 0.0 4.424996286204117 -8.067482305982974 0.0
37 1 6.607439735329924 6.570686395292283 0.0 3.26371278122705 -1.3811053013039052 0.0
38 2 13.173787885763156 0.7694313601157364 0.0 -2.734724415869262 -5.425994976022145 0.0
39 2 4.366888062634514 11.724546944730445 0.0 9.616272510077785 8.759185912464979 0.0
40 1 12.454101724928048 18.94746759363932 0.0 15.137497211316251 5.987652296380476 0.0
41 2 11.606602004983289 3.2222643080989304 0.0 -0.040185537245081594 9.330001269589246 0.0
42 1 6.248520013840644 4.563298042191259 0.0 2.7934346808422688 -8.389262450431653 0.0
43 1 17.52627930699604 2.6373508641761365 0.0 3.8986687062184764 -10.23547860528795 0.0
44 2 0.016016002188138645 7.690894700971767 0.0 9.707534336026857 -4.515713190591336 0.0
45 1 7.151817928935605 18.115857913719704 0.0 9.420784074395767 -11.46903541832909 0.0
46 1 5.636557375926239 6.071901481870598 0.0 4.159253194306566 -2.0263232013172474 0.0
47 2 8.499807986423834 18.15172068042394 0.0 -6.806081786993523 -4.630036762663902 0.0
48 2 11.496118476978204 14.936911871878252 0.0 4.591988038750365 5.058254069007287 0.0
49 1 10.692109815591717 0.5688119793212738 0.0 -2.115264212111252 15.621369094086658 0.0
50 2 10.998091172786616 18.212136013149113 0.0 -5.060588639572083 9.809315660457168 0.0
51 1 8.069930299958518 11.82428439054356 0.0 4.850754837652542 -15.829932273647826 0.0
52 2 3.120558868666318 13.220817021800793 0.0 7.57612111990254 4.980154631508499 0.0
53 2 15.229551855797126 7.116111644032267 0.0 -2.2210027579853904 -3.6660042267862236 0.0
54 1 0.026354265954804317 2.2938260322479302 0.0 -11.32862777170057 0.5125366761305247 0.0
55 1 13.720049277958168 16.37880151361764 0.0 -19.328837528429087 1.2473737987746416 0.0
56 1 2.9710968874375596 1.1147523567598816 0.0 -0.1709408899067832 0.7807819074540049 0.0
57 1 13.996677616662705 1.1118071650609311 0.0 10.985394267859963 -10.903368758939937 0.0
58 2 4.482398201613556 2.870334989818146 0.0 -0.15038880418852432 -2.5064064261813797 0.0
59 2 9.232199045100575 16.589040736678225 0.0 5.9207450938745625 5.524879419039129 0.0
60 1 6.498290212162995 1.4051560072004785 0.0 -5.749686137010611 -0.03578292629171998 0.0
61 2 16.245567340748778 5.5375613438485844 0.0 -3.185984494113955 -0.006778591306699088 0.0
62 1 8.08135886767893 0.31499016030741567 0.0 9.41476361749655 -8.403832958336427 0.0
63 1 4.444301772498987 7.110825258283154 0.0 -6.250306148610415 6.067412412872462 0.0
64 2 6.777992309068027 11.015311467903079 0.0 -7.632329442334286 0.9466674135645441 0.0
65 1 19.326036622517936 3.5943240730912223 0.0 -7.893090505119652 -0.0410702473484378 0.0
66 2 16.527839043906695 15.934043242148517 0.0 -13.250008605350686 1.2571703892126644 0.0
67 1 5.878298987359454 12.740253088843906 0.0 -0.8872544940749574 -11.271448608640036 0.0
68 2 12.49228359214697 10.139734107638724 0.0 -0.5080909069493444 4.190033114337462 0.0
69 2 12.034551019216385 0.6744754724644193 0.0 -9.466947347859845 2.911980887570134 0.0
70 1 17.54759344330461 12.833750736824893 0.0 -1.8928775950692356 -1.7178901822091122 0.0
71 1 8.021036206206544 4.669900570820868 0.0 13.686771424068137 -7.752505752420682 0.0
72 1 19.201881134866518 11.966713945209786 0.0 -16.641200400938935 4.5707890151978905 0.0
73 1 0.2848014175323996 1.6171575460469436 0.0 11.592499130471822 2.489495178679228 0.0
74 1 4.0614394406098375 12.595780447511299 0.0 0.6025910303036316 -11.45987799602801 0.0
75 2 17.697176069869563 11.27515634305126 0.0 1.9134175975949246 8.418297714296415 0.0
76 1 6.795512447844262 17.22050740687276 0.0 2.38993056282491 7.3873681268156 0.0
77 1 5.936825376854353 17.552440384018436 0.0 11.040201070135769 1.5260120293219712 0.0
78 2 2.344028207607989 5.64546651322729 0.0 -2.0464648124692175 9.104035854919335 0.0
79 1 6.314578998857454 12.116001335279096 0.0 -12.563334377228275 6.189236055390694 0.0
80 2 5.595372056666635 7.935472085845887 0.0 -6.6226545066971205 8.042159822556329 0.0
81 1 18.541619721857735 11.976615394279225 0.0 -3.6322398616062106 -7.535048795347104 0.0
82 2 8.044055027814768 9.303878939852968 0.0 0.4637212967102578 -1.6564829901673557 0.0
83 1 9.66059911768102 6.194375649032632 0.0 -1.4278865297139631 4.951040915833441 0.0
84 2 16.925666781181782 11.147434054303602 0.0 -4.226521089267147 10.35485711109689 0.0
85 1 16.616150403976604 0.05937725972524316 0.0 2.3373949044636855 -12.093283086846485 0.0
86 1 12.569086038352392 4.211466541752001 0.0 6.348114612439565 9.893959370211991 0.0
87 1 7.992549891249704 5.991823362889728 0.0 -10.138618458680634 3.9099798899411047 0.0
88 2 10.138957854578345 18.647872074558848 0.0 -6.326552180318779 -0.18450090629833718 0.0
89 1 6.331869181736761 7.688156115335241 0.0 2.3083836131698003 4.622062013218563 0.0
90 2 5.1763767155015685 12.202133904895996 0.0 1.7144041044589369 -8.461561707958879 0.0
91 2 7.321728494375182 0.6784854379416739 0.0 -5.529335780191003 -6.884102728635682 0.0
92 1 10.768124716249767 9.524717068140431 0.0 -5.724337305288565 1.304421258225578 0.0
93 1 14.017006599273746 7.149399305889776 0.0 7.902417425601413 2.876220039082082 0.0
94 1 12.318802862006113 12.081589600626799 0.0 -7.65457895404057 -7.801029383235501 0.0
95 2 14.396971763428285 4.57381768223587 0.0 -2.2251345518978907 -2.921459063262985 0.0
96 2 18.63253164122391 17.730742720578316 0.0 6.4046089223722555 -3.31466361869419 0.0
97 1 16.09703598270347 10.030604829840994 0.0 -1.3867985038464703 -13.738883369273593 0.0
98 2 17.81049254247139 1.5274538607139587 0.0 4.4292981295310545 -2.1153139428886387 0.0
99 1 16.57562200288354 18.679857943426533 0.0 -8.486787481976853 -14.070104488407438 0.0
100 1 1.305031595957268 4.8120036627619065 0.0 -3.2996381679314832 3.717653149830975 0.0
101 1 1.4444998336215173 13.886206635463802 0.0 -3.642922854614113 -10.875399262768969 0.0
102 1 10.48689508198547 0.0954641248842261 0.0 -12.116037999404645 4.625682358507059 0.0
103 1 18.90234842732583 11.50964896389759 0.0 -5.170210392480515 -4.984153961103646 0.0
104 2 13.146156709168878 9.3876702753869 0.0 -7.938138979550445 -5.456374853198903 0.0
105 1 1.604981421791689 16.537425076124517 0.0 4.8104278116483465 -15.457658743133951 0.0
106 1 12.444938503446233 8.33189682436838 0.0 -1.1849196862678983 -6.630260206410409 0.0
107 1 1.479088553118905 18.928129702790674 0.0 -4.203007094403068 10.031217237029136 0.0
108 2 6.960977487731416 5.759400837476347 0.0 -1.804090460870897 3.395113067957326 0.0
109 1 1.1300931915524375 3.173276869927882 0.0 -15.46008119422726 10.471439050328316 0.0
110 2 6.272726111698055 10.20005595252993 0.0 -5.415011378089961 12.860490370633906 0.0
111 1 15.752823465237283 9.050638046608594 0.0 9.586414764415279 12.230508186125613 0.0
112 1 11.3081851099682 7.624960453987028 0.0 -20.837490087958887 -15.193768861149827 0.0
113 1 8.234523759373902 5.307663209784124 0.0 -3.2159114838764946 -3.3533885638051824 0.0
114 1 5.966300726257074 5.100171103168118 0.0 -9.719964511886102 2.8318930686865835 0.0
115 1 11.603602239505788 4.608103500026385 0.0 8.354926000590016 4.1679930969616406 0.0
116 2 15.51804738641051 15.365762938102506 0.0 5.13646070352093 3.7805802843093366 0.0
117 2 17.467430475931188 0.2757125750015561 0.0 -2.1602590279014136 -1.5571798960849872 0.0
118 1 9.757939682289939 11.383565260064808 0.0 1.3742219676707748 -3.4579882078705473 0.0
119 1 10.819319577469287 8.45482970263999 0.0 6.563944002322804 3.197144558121052 0.0
120 2 15.651256690520121 16.53513131108067 0.0 4.986846007276701 1.9398815141686196 0.0
121 2 10.112167297181095 17.734907715274755 0.0 7.8832237805772305 -1.6673044773202783 0.0
122 1 11.572070541542878 5.953441513534148 0.0 -7.675695003075513 -8.957428690973764 0.0
123 2 8.520239949068964 14.232836560663971 0.0 -4.671792680957322 2.6473571185950053 0.0
124 2 4.899240477075417 12.986475967505058 0.0 10.3849266630289 -9.224545718921997 0.0
125 2 16.908236596088138 4.849984265078034 0.0 0.29314814919165383 6.838131146081685 0.0
126 2 19.080092276591337 16.94347538070184 0.0 18.042640279372147 -3.9878656655353795 0.0
127 2 11.016720520100494 15.683081973987264 0.0 3.734305920646685 -1.3205427553458349 0.0
128 2 18.985762151600056 15.62029299332256 0.0 -5.707950478227233 15.858156900559289 0.0
129 2 3.696004654846223 1.7787159734862912 0.0 3.1324889518964354 -6.261061826569488 0.0
130 1 12.113720434617948 19.70358788085169 0.0 -7.47327382371379 -17.609941130924792 0.0
131 1 5.663123126121264 6.807810983733293 0.0 -0.9508533035334594 8.361369338933827 0.0
132 1 4.24488078522962 16.754376503232802 0.0 -7.626515702015713 -3.2205689508392417 0.0
133 2 14.236262883949797 6.313994877082169 0.0 -9.760329347523783 -8.371976679380714 0.0
134 2 4.012634851280029 3.6260109311337403 0.0 4.941572900566067 -4.13371569117991 0.0
135 2 15.764523693052555 11.274159226153786 0.0 11.46263440610964 -1.0159095260587858 0.0
136 1 14.738868670923024 5.508104448929959 0.0 13.063546341907431 10.767767860942959 0.0
137 2 19.002293269673235 0.2097719281929061 0.0 6.272528690990905 -3.475272452319002 0.0
138 1 12.64351020094942 1.57003176137557 0.0 2.193574719544459 4.317335720373191 0.0
139 1 4.730663498017013 1.2616181940331532 0.0 -1.7504869071326123 5.899974561523728 0.0
140 2 16.92606103477097 10.145511218148387 0.0 2.527047049447044 13.278348411995406 0.0
141 2 16.294955493794827 1.5671679049746186 0.0 -6.9995543345788 -1.3790006571997389 0.0
142 2 9.227471094525782 19.040355207545463 0.0 3.2500457080908496 -2.4138305896215466 0.0
143 1 4.618774370446008 18.769139300529154 0.0 0.09985444790881144 -5.549570864497319 0.0
144 1 7.4668673379213715 17.504464823293226 0.0 0.8041870419236712 -6.210193645337208 0.0
145 1 12.861358940221011 17.616573504484563 0.0 4.9991236131445 -8.244332461666566 0.0
146 2 2.835959003519908 14.055994264894101 0.0 1.300586153730642 5.418459353586116 0.0
147 2 2.244694059606596 2.651385053105011 0.0 0.13740163087985305 -6.867453209496608 0.0
148 2 18.156677223583685 15.229017403831985 0.0 -5.441380532758977 -6.599214476829441 0.0
149 2 4.146806041423112 17.964751162012682 0.0 -3.371592939803826 2.212165703866646 0.0
150 2 14.168673629244896 9.915070887559656 0.0 5.828522691176206 -1.0554838223999332 0.0
151 2 6.479345263565784 15.16498973588269 0.0 -6.209331951248067 0.3701752234003657 0.0
152 1 10.815047226167513 7.347843060301037 0.0 3.1252443193950064 11.953100563741884 0.0
153 2 12.852157067009877 14.040704618018614 0.0 6.424696261718217 6.892089431237652 0.0
154 2 10.132660617815818 4.298643013577656 0.0 7.309793662906222 0.5888750551957916 0.0
155 1 1.1607731522581015 9.54721544728248 0.0 19.722094829032425 -0.6079620070215037 0.0
156 1 9.802389491340975 19.70616833779338 0.0 -0.6268881439680203 -7.084786413287077 0.0
157 2 8.267991870210142 13.213693736960426 0.0 -5.203707962568779 -3.626979481812768 0.0
158 2 18.783174203238097 2.06188605625849 0.0 -18.18845803068617 9.11192854672407 0.0
159 1 1.8537676357801514 18.223746289949563 0.0 8.058238169490531 -9.588594397262595 0.0
160 1 8.57850560904576 6.325690045027632 0.0 7.019349672514436 4.147532635341234 0.0
161 2 17.700915349003573 4.4162130242995605 0.0 -3.83664206593151 -4.476819014463479 0.0
162 1 14.21551689112307 16.556014372054342 0.0 1.331633488902788 7.39728848681119 0.0
163 2 17.553718515360284 17.53498156964418 0.0 3.006843262826275 5.341582654136665 0.0
164 1 10.025931898719751 8.193125572485618 0.0 -5.197720724108246 -7.532901814115629 0.0
165 2 4.920170891935447 14.605817539137984 0.0 0.9206542799631627 8.642732927743243 0.0
166 1 4.5560062678801 4.420015523958379 0.0 2.6151737101980896 -2.006421058103375 0.0
167 2 14.656229738277437 8.345608094638154 0.0 -2.4434636366443643 0.8385938229260093 0.0
168 1 7.559915842526314 4.431058651699136 0.0 -17.1087865316671 8.527531621447418 0.0
169 1 3.619490363261969 17.11303178360502 0.0 0.6643194727357814 -0.4797458378803329 0.0
170 1 19.744715521889606 17.5012530225113 0.0 -14.606433223168546 -0.26417056796641303 0.0
171 1 13.362937344999121 14.815196282825616 0.0 -5.614242078775017 -7.010528542601026 0.0
172 1 3.4685932686267136 12.196204230926181 0.0 4.5489023275935905 -6.279598318740869 0.0
173 2 1.7074890093769424 8.802599983476718 0.0 -0.6809130391340241 -1.8729936803591023 0.0
174 1 18.357700539349505 8.962206665388145 0.0 8.967635952524507 -4.6799461098051385 0.0
175 2 14.573087599807005 17.75892793333091 0.0 9.23248262253034 -1.9495231743799692 0.0
176 2 10.455198606797069 14.309974275051536 0.0 -1.3698538847695423 13.837711887080186 0.0
177 1 9.127296649356484 12.383041432771844 0.0 12.598075454375966 7.541722131915273 0.0
178 1 6.116806521916801 6.892166056425062 0.0 -6.100233270059595 16.412880438908413 0.0
179 2 18.220902743724555 18.982717266082112 0.0 -8.227648602670682 5.39129164772554 0.0
180 2 18.037182835924977 13.494880824021674 0.0 4.445774625136675 9.203381113762324 0.0
181 1 13.233274051431659 6.996830354012383 0.0 9.159374669964928 11.94609124723007 0.0
182 2 1.433974673774265 2.3640686477166937 0.0 -5.46775527751311 3.110081976655251 0.0
183 1 7.811405642875852 1.6421873593321883 0.0 -5.343060803868823 -6.945698914793935 0.0
184 1 0.8599526610333919 11.901022567370811 0.0 1.4311455052643594 -2.8642324768728726 0.0
185 1 8.453923885545036 8.467547068066107 0.0 -8.950679063594157 0.41446539851815944 0.0
186 1 14.234449234758662 0.6643163028144718 0.0 -12.672981460385923 -1.6837163336219134 0.0
187 1 5.797570163784246 1.8181178562486444 0.0 4.9147262688203135 11.80026814530987 0.0
188 1 0.8026787755450975 5.613050814575457 0.0 -3.2940483561748977 7.342674992110714 0.0
189 2 15.17554356392459 12.906373524283728 0.0 -2.0835445758375943 -0.4249045554131568 0.0
190 1 11.744892780412801 18.63501595334246 0.0 -5.659955074197261 10.361342389554371 0.0
191 2 2.864128871750383 11.023812946181884 0.0 -6.32201351124601 -0.43455811573130465 0.0
192 2 16.778455779409274 13.4326954213079 0.0 7.102192478163767 2.661585681141093 0.0
193 1 6.812197627669921 16.50206709301878 0.0 -6.98611328666276 -1.664434925862033 0.0
194 1 2.377400311812884 18.399505061044163 0.0 2.3039151215668685 -6.009310863700979 0.0
195 2 3.855386876902192 6.186052275564915 0.0 9.440971221725931 -11.360987096667406 0.0
196 1 6.874866365839954 4.886412398631063 0.0 -10.154591669028616 -16.053314192346843 0.0
197 1 12.418078254924897 2.724329352343892 0.0 5.488643320246156 -1.599487257682027 0.0
198 2 9.616668402737645 14.18349509957741 0.0 17.12647256372164 2.8113182281814972 0.0
199 2 2.4298378170611032 9.908897923858053 0.0 0.18084789647169547 -4.735652188370046 0.0
200 1 8.851748332552322 4.799428366345603 0.0 26.173625062132746 -1.0370399073696255 0.0
201 2 7.753795051067767 7.035957235058242 0.0 -4.287626521779459 -0.019308866062101766 0.0
202 2 18.460064019946124 10.321229853143242 0.0 -3.001919705070875 3.8430025687235503 0.0
203 2 13.95240521333033 9.06122686876759 0.0 -9.452621524225084 12.53384701877951 0.0
204 1 15.147096337265694 2.3366307769852313 0.0 -4.831242558327149 -0.9904415953667665 0.0
205 2 14.47381890655711 2.9900798441421133 0.0 2.003833623928927 3.761708019194364 0.0
206 1 12.079305211676074 5.686735310654346 0.0 -7.123281523504777 14.041743117617944 0.0
207 1 19.652248981022574 12.164458319615479 0.0 8.716156459366536 16.32070854852771 0.0
208 2 17.510535392152327 7.533747018114796 0.0 1.8096972814087589 1.4203404854599138 0.0
209 1 7.5865827219431345 15.918685530909965 0.0 -7.464779610146685 -20.11216796633836 0.0
210 1 16.46771017401872 2.3323471288713864 0.0 1.5524997520661736 6.366089047472762 0.0
211 1 8.938723634606369 2.6874814792538184 0.0 -3.9855058805681725 0.03795418004997627 0.0
212 1 4.2882777440734925 0.5426835856642902 0.0 15.481424163928507 2.039929459781383 0.0
213 2 0.6886162636870035 8.464652573407971 0.0 12.954272479661455 7.4334187688466455 0.0
214 1 16.82983932634673 16.811475367990344 0.0 -5.740994829760951 7.43145719047807 0.0
215 1 6.293522006838652 2.1272720439549375 0.0 0.30160422171777596 -4.082863741083273 0.0
216 1 18.68475432585702 5.24459921550937 0.0 -10.136133137758774 4.55307432257689 0.0
217 1 9.952056612300689 7.690609542113215 0.0 -5.558024564269096 2.4074527185166636 0.0
218 1 8.594544007881638 12.066387101853957 0.0 16.527345018684496 -9.242107770048268 0.0
219 1 3.8054959878694397 7.2551811150146515 0.0 10.99211322565244 12.514899916013537 0.0
220 1 10.871289194901964 3.7795371837915552 0.0 -19.076687378632926 -6.789339012394372 0.0
221 2 3.930630416535801 10.322663693849371 0.0 -1.8376477374060947 -5.33041305727689 0.0
222 2 0.06845720411030401 0.12517804498362006 0.0 10.010542640901324 4.315393306941169 0.0
223 1 7.566070697949231 11.144124581725197 0.0 3.721562594845221 -1.3100083324992071 0.0
224 1 4.970210249677864 6.109370799572604 0.0 -14.811959052610327 5.571341009497697 0.0
225 1 7.091918784033794 9.321140930459784 0.0 4.9927708197457354 4.246622333876169 0.0
226 1 19.61395061631074 6.946828632223079 0.0 -0.4093100139042323 -4.1525561751998845 0.0
227 1 0.54439035565616 3.6297888461040877 0.0 -1.9627988306902526 8.55321037941413 0.0
228 1 11.757320180238377 12.50731625647601 0.0 -15.178816527870428 1.7518928877872793 0.0
229 2 17.42009441931081 18.721142160629373 0.0 -1.6427456856663727 -5.941953514569514 0.0
230 1 19.19504284026084 8.147083890901543 0.0 -9.970183478430585 -7.7027203639926185 0.0
231 1 1.0728435505724923 4.035053021801108 0.0 5.045638432968812 -5.6884857714232435 0.0
232 2 13.699602281530955 18.01016066484813 0.0 -0.4325531593051047 -2.806832862718248 0.0
233 2 18.621931835606134 14.54149600109632 0.0 2.14384565282065 -2.6563894521031863 0.0
234 1 17.3484307616949 3.620731510188982 0.0 1.288462832831743 -1.8916782006756583 0.0
235 1 10.437471109164523 16.273193336948 0.0 -0.39881649243270817 -7.895794675231712 0.0
236 1 10.200772177574171 5.557058122307637 0.0 5.097267574789374 0.14901356511904434 0.0
237 2 4.11090528091892 15.915511137820037 0.0 -5.34158566807339 -12.680247002706444 0.0
238 2 18.451875482313316 7.280214836735408 0.0 -12.299331561303198 6.924100259985359 0.0
239 1 6.703509148479499 2.6778396751951745 0.0 4.8986771140982865 -1.2746665454572566 0.0
240 1 3.1463632757957454 4.402881234552535 0.0 -4.778985492867547 -6.382736840150659 0.0
241 1 6.977164959695807 18.70916625263278 0.0 -11.756041667045979 -16.020063464536776 0.0
242 2 11.396327832435995 14.092997815957618 0.0 -7.376224545808588 3.1788118280103514 0.0
243 1 15.960506388041232 2.3063242956359478 0.0 -4.774666140447834 -11.797665694988249 0.0
244 2 14.77916847837566 0.02603802372912149 0.0 0.2991210739358005 -8.769905315040276 0.0
245 2 9.325702814086974 3.8787387350617926 0.0 3.852647989192397 -3.5099727463895416 0.0
246 2 13.04894947524038 6.090381810940999 0.0 -4.161657248128275 1.9235477752574761 0.0
247 1 15.525247139240033 12.21340326349571 0.0 -15.734370946969541 7.475598962101958 0.0
248 2 7.503702720836825 10.257394848772643 0.0 -1.7031315634150153 7.590948979538786 0.0
249 2 3.1124785233947234 2.7868708834714244 0.0 0.5837428441105001 -2.16507186267482 0.0
250 2 9.875206693349885 12.984044858418859 0.0 3.7627123001740723 1.2475495131696837 0.0
251 1 1.1923628080014046 7.351767045840214 0.0 -1.7865642766851542 -1.8392044556237863 0.0
252 2 10.799460471326812 13.269928882193776 0.0 -8.476684911548393 16.17607208232553 0.0
253 1 14.137357317110164 7.677902061631164 0.0 17.127660140848892 -6.081747942326769 0.0
254 1 4.91225384610527 19.62960489628754 0.0 11.141931747960845 -0.6897558951974418 0.0
255 1 5.916554274277993 15.855624413811697 0.0 2.0463732222907534 27.249001944139206 0.0
256 2 4.132113561278238 5.022807659564567 0.0 -0.17277422796833264 -2.7113138932102423 0.0
257 1 17.2500887800801 16.396042104307195 0.0 -8.511871514071517 -3.171252794891968 0.0
258 2 7.2066020058599385 13.981105714376316 0.0 -0.5519988141403769 -0.5508283743772411 0.0
259 2 2.8328501806981747 16.75195789749147 0.0 -8.715697830665782 -8.825109752965 0.0
260 2 12.570738829351404 16.700310778601146 0.0 6.324998295039089 9.148084228111973 0.0
261 2 3.290435785328074 5.483558081493467 0.0 -2.191517735138252 4.026952343718501 0.0
262 1 4.59032353025955 19.227529248790233 0.0 3.9626655267516377 -2.0881921162514874 0.0
263 2 4.887804641277175 5.323807754166311 0.0 -0.411075787702808 -0.0937367788119351 0.0
264 2 17.721896768507396 14.436597546144537 0.0 1.3836836444728975 13.474282452105422 0.0
265 1 16.97329662442117 2.3115711859127837 0.0 -10.935543671465213 -5.142984166633614 0.0
266 2 15.18283856607453 18.32449409153593 0.0 11.222555131659725 -4.297115029363161 0.0
267 2 11.180741224629157 17.065638013869794 0.0 5.1746002159369695 2.5076721715410137 0.0
268 1 16.527809711546332 0.7479512638892916 0.0 2.4768496339629156 -15.46496055501026 0.0
269 2 7.4982020604357045 14.828337200179732 0.0 -4.394597041679248 2.5134474693995776 0.0
270 2 1.1579485747754794 10.464644646486486 0.0 8.35978898022147 -5.4843649555668055 0.0
271 2 12.072222808820646 13.447074072332763 0.0 -6.7347116620842575 4.181239157284934 0.0
272 1 1.5932657131615504 5.494350845573962 0.0 6.92127867204725 1.604487261134445 0.0
273 2 5.233635101720715 17.959245315189886 0.0 3.5282587166087302 5.2393721409481815 0.0
274 2 15.92893817920163 14.238963614573885 0.0 -0.6672740741955363 -0.7760449535107041 0.0
275 1 5.327560958934249 3.1119616008839843 0.0 4.238391398081953 7.192677317180584 0.0
276 1 2.1336139237342553 17.709870160122367 0.0 -12.94247412835254 12.323939777661783 0.0
277 1 12.397914684936175 2.255240783521357 0.0 -4.9070234426771435 4.439607635885553 0.0
278 2 12.349546791839366 7.101420357948701 0.0 1.3860524885285104 -5.027558851260618 0.0
279 1 12.485090399142326 11.241428801643783 0.0 0.47768340233728346 -6.702493312304533 0.0
280 2 17.97090922959428 6.377208918276711 0.0 -5.305997083020047 -1.2058921324700878 0.0
281 2 12.081316471506153 15.87229951436515 0.0 -10.53588713090359 -1.9812443809760611 0.0
282 1 13.035790831260314 19.270775888005694 0.0 -3.8299858767507824 -2.148281068647161 0.0
283 2 18.23361902627458 16.368801516254525 0.0 -1.1173156602768084 -0.6947729861432956 0.0
284 2 8.043297182798373 3.758633104883866 0.0 1.9297793390918863 3.9423687883406826 0.0
285 2 5.084428663954341 15.710029040585546 0.0 -2.1046345131919955 -19.872097675907398 0.0
286 2 13.75603601470165 5.438469367824238 0.0 -13.270040667004224 -9.194536616816158 0.0
287 1 19.640364276798962 6.2107683807526906 0.0 -1.0565141630717452 2.4300124168296486 0.0
288 1 19.623718217180414 16.451706816366645 0.0 -9.538946606876635 -1.8914651565385046 0.0
289 1 13.273360612107458 17.057310268383524 0.0 10.897165623360682 -10.875000110738664 0.0
290 1 6.6744557269494384 8.639475339659892 0.0 5.758625136065637 -15.791055548540218 0.0
291 1 13.77026267991413 8.044756533537633 0.0 3.6845388045767358 0.6841274561637342 0.0
292 2 1.4589847328799321 1.5185651615057885 0.0 2.4442711012991873 12.98496614744184 0.0
293 1 9.920905025176053 9.131111395160344 0.0 7.582946365122107 9.906775888691715 0.0
294 1 8.116488052821042 17.45230620424331 0.0 -8.014223452053518 -1.6720048043892133 0.0
295 1 17.483536514741537 15.854469499957222 0.0 10.808396899129276 3.1254177770023053 0.0
296 1 2.8486200986043833 6.735627477706942 0.0 8.962182012176253 10.90846339296238 0.0
297 1 13.123339247452627 19.742006558123556 0.0 11.398216540432365 -2.495347057461583 0.0
298 1 6.503079569778922 12.576426589277906 0.0 -5.465969917393564 -7.1115558817800695 0.0
299 2 5.620732511043632 9.208804261336915 0.0 1.485963535100241 -3.0655217191698028 0.0
300 2 1.742763119149345 11.342258244058241 0.0 0.7412345996152339 -7.668543008282902 0.0
301 2 7.748975022185229 7.965053292471524 0.0 8.46793217163724 1.5602153537148207 0.0
302 2 6.051537239732154 16.80860128818614 0.0 2.375270738314172 -0.6253338956777595 0.0
303 2 9.610251822983697 10.162382278295448 0.0 3.880510115567083 -5.22928135314172 0.0
304 2 0.30398647044676425 4.638852904024118 0.0 0.08812331993990284 -10.866412265018505 0.0
305 2 8.8478746272841 15.263269845040057 0.0 5.297449057551091 3.213274466905496 0.0
306 2 8.90474050954797 5.596365066500446 0.0 -2.323005603402437 -2.6729085004142625 0.0
307 2 0.030740355827787856 18.946641340936743 0.0 5.244351525179254 -4.66539821785138 0.0
308 1 1.1185924616951075 12.991618847619884 0.0 -4.989509297707772 -7.680704063011169 0.0
309 2 15.41253904710101 4.846574294931678 0.0 -8.461128266388492 -2.124098059739128 0.0
310 1 12.242957295120663 9.391081285588326 0.0 5.516404657625072 -9.010934954247153 0.0
311 2 0.8088147159637171 18.53217102639793 0.0 0.6448532789899369 -3.207882482298826 0.0
312 1 10.045768908422925 1.2658291293012485 0.0 -1.8123988739793175 -8.759973450740137 0.0
313 1 1.9514616035419727 1.0030091616127674 0.0 -5.4593742357461705 3.59723726555264 0.0
314 2 1.5464537448467586 0.3095532178727759 0.0 2.0987250907083768 5.894059593932041 0.0
315 2 2.6175302659055446 19.57412222197253 0.0 -3.638746721606325 8.673371585362904 0.0
316 1 7.076964144348696 8.224676630263328 0.0 -2.266968227037916 -6.183546803687329 0.0
317 2 13.694693316780738 11.558208632651626 0.0 -3.8979227672092938 -2.8200183027118917 0.0
318 2 19.37241207121228 10.558262323699681 0.0 -12.53414984687878 -3.114054377823544 0.0
319 1 2.7638581627837984 12.083328029309348 0.0 0.3715344201997095 -1.9538306081703585 0.0
320 2 15.644200877496035 0.3717625833353414 0.0 -7.076787538494959 -10.361698211816327 0.0
321 1 13.50439044293095 4.673177824384412 0.0 6.538638512249941 -8.46507964448549 0.0
322 1 6.604967742604072 18.056095955670383 0.0 -5.066611598158641 19.275449474627166 0.0
323 1 12.013355771389822 17.565251194669223 0.0 -9.920007001806924 -5.664357822029586 0.0
324 2 3.815712763184865 8.332485026506575 0.0 21.093291584867657 8.04455886725351 0.0
325 1 10.560459378806934 3.359430684090839 0.0 -5.2390037502423 -27.426794577299987 0.0
326 1 4.652410701066087 7.84825978082376 0.0 5.4169547035533645 -0.1590625068872103 0.0
327 2 5.74003381426305 0.8622266754479543 0.0 -3.6139451056285283 3.7339377108424934 0.0
328 1 6.971932499965686 15.701425193818793 0.0 -10.654334802433906 -12.74796897198253 0.0
329 1 14.09874625893993 3.805347345258648 0.0 4.527097455322535 1.6317066127917814 0.0
330 2 3.4012774149692073 9.342832856745542 0.0 0.4176102480376792 -7.104318365547918 0.0
331 2 4.719519714556481 9.522621334083507 0.0 -0.8052842617647564 2.679332160724142 0.0
332 2 3.068192073574489 17.8983323155355 0.0 -0.49730001929756373 -0.11434948063400477 0.0
333 1 11.89723271575817 11.306813949245761 0.0 4.69443272540917 3.3344348076203008 0.0
334 1 3.3061198614609424 3.797420666196134 0.0 -7.332508214571016 7.054658163984643 0.0
335 1 6.0125328409614625 2.7028160980141145 0.0 8.04653678065863 16.695483010401404 0.0
336 1 19.357779200754365 9.000488838652876 0.0 17.06250017654276 7.3183257065937655 0.0
337 2 3.9828071152321787 14.417141720231031 0.0 4.701217404744322 0.6646597652479708 0.0