ITEM: TIMESTEP
0
ITEM: NUMBER OF ATOMS
400
ITEM: BOX BOUNDS xy xz yz pp pp pp
0.0 19.7609 0.0
0.0 19.7609 0.0
0.0 10.0 0.0
ITEM: ATOMS id type x y z vx vy vz
1 1 17.078314204184828 10.810673079398896 0.0 3.1785118038715265 10.350873617417331 0.0
2 2 1.899364292975508 12.243247452615377 0.0 8.450754620413335 4.270775488615165 0.0
3 1 4.883687536746668 11.628427075670912 0.0 2.743937886362201 -3.226608409679079 0.0
4 1 5.730889193892126 9.316866726660441 0.0 15.955628695890955 -7.906339971152325 0.0
5 1 18.38554750441595 14.712851130506131 0.0 -6.918882082854424 -10.57126388718969 0.0
6 2 14.33019316176702 19.608289711743186 0.0 5.570726155750073 -9.06795836484591 0.0
7 2 6.3094863359695745 14.61939083934893 0.0 -8.687663473742255 3.825724432897719 0.0
8 1 15.827379160636395 1.0895051475993833 0.0 -3.469911590287805 -2.8601883593879376 0.0
9 2 18.32470975142817 3.3808454262363368 0.0 5.465881848306167 -5.746060551641772 0.0
10 1 10.271485423260232 14.426296024198384 0.0 11.97605702331409 -8.402751657714271 0.0
11 2 15.576937546923567 5.4281055473911755 0.0 8.625596844746966 8.586432750493387 0.0
12 1 12.909697608760974 1.5345764815459149 0.0 2.3625478342774526 4.727213167668203 0.0
13 2 8.207258123514194 16.419365407316846 0.0 5.120958302608919 6.105514051773526 0.0
14 2 17.924126189476144 16.613145501154044 0.0 -3.267783627702354 5.146376707707928 0.0
15 2 18.261613221040257 4.258569771059411 0.0 -0.8726206477200347 0.9722570739191712 0.0
16 1 2.336830339520037 17.48310451252516 0.0 -6.320910018775484 -17.606676124659593 0.0
17 1 9.662712018007184 14.061547492613592 0.0 -7.721537948831572 1.1666213299711023 0.0
18 2 8.957275633908408 6.8011669375542505 0.0 14.373635387836998 11.941675051412854 0.0
19 1 9.395699675107641 1.5183480782929748 0.0 -13.66819314429179 -3.3734236688822414 0.0
20 1 4.954637198866886 12.304213568998154 0.0 -12.890651943003885 4.955698513266258 0.0
21 1 6.209524805800731 9.137658629077299 0.0 -5.774091756620914 -9.079197323134425 0.0
22 2 6.3973673127479955 18.883646578307474 0.0 0.8995698233061177 -2.4793052136444347 0.0
23 1 13.718722780464436 5.493103690853453 0.0 -27.93938649905659 -7.415123540131503 0.0
24 1 5.393466019685536 4.530630737149382 0.0 -1.5264093826829153 15.244476956704382 0.0
25 1 9.13353921601752 12.792473618380171 0.0 -4.972592699947422 11.541632609250469 0.0
26 1 17.203551204779814 18.736895553932783 0.0 -9.281015456970028 -17.721660684173592 0.0
27 1 9.555624883490173 13.501878234766073 0.0 -8.285604128624307 7.162890300739336 0.0
28 1 13.638416287987551 0.7871320756358812 0.0 -3.7280836674735482 -1.8169133732657246 0.0
29 2 2.6475161467882287 7.581511705992947 0.0 -0.5777725317711295 -5.960183778980075 0.0
30 1 16.463652853508503 17.91418988122476 0.0 -3.709177035102005 5.622251354469289 0.0
31 1 3.596707670348287 17.642464781768705 0.0 -16.52068493419281 9.734270880883448 0.0
32 2 8.655439418664889 2.6813996692024373 0.0 9.595234151518492 12.321078311361768 0.0
33 1 5.80459954486679 12.172894931498186 0.0 9.531162910071238 -6.833102507094267 0.0
34 1 6.190011016598382 12.443769472714465 0.0 1.0785627384876133 -7.573242749042559 0.0
35 1 3.6315410385302886 9.353620046494097 0.0 4.898929807120469 -9.180475356226637 0.0
36 2 4.009268049522964 18.336076743325602 0.0 -3.5222086717430394 0.7125971677919657 0.0
37 1 12.293378142542329 16.64135275830387 0.0 22.071100374907555 4.021433775708021 0.0
38 2 17.938376272082028 9.211395280269166 0.0 -3.74889255793726 -9.262376241934144 0.0
39 2 13.326341563739708 6.695261971172771 0.0 9.054248051204587 3.8365875035975865 0.0
40 1 19.73988413786349 11.925181589836585 0.0 2.2196837681943 13.126732616046807 0.0
41 2 1.7110490426693128 2.444100386027352 0.0 -1.851203048813082 -7.8956161422233935 0.0
42 1 2.3755280535620296 9.768029156177029 0.0 -2.286725417394166 0.9648482470279521 0.0
43 1 9.039600471858042 13.314589658199038 0.0 10.005525335017103 3.0514933850552928 0.0
44 2 10.065341896762847 17.281728555329753 0.0 6.727343833778299 -12.285359275113573 0.0
45 1 1.2755553506200097 6.657753758731599 0.0 -7.805368526565195 18.04307463824583 0.0
46 1 12.356498179052464 4.180124755806784 0.0 -1.4716042362133832 -5.705715002658576 0.0
47 2 2.0324242860418438 14.628615178264814 0.0 -13.464718093851344 -4.816593413096118 0.0
48 2 15.085894674257926 17.478585169502047 0.0 -9.234054027627462 -3.3545820961389157 0.0
49 1 6.325927914658103 10.559870708037767 0.0 -7.4509076176469415 6.449656621123231 0.0
50 2 19.711741625255062 19.103857620565876 0.0 3.7955961861211245 -5.604607468914701 0.0
51 1 0.4302991113458921 7.5151610371647015 0.0 0.42836248276666006 -10.666679518385292 0.0
52 2 7.986113426409991 15.495409052357932 0.0 0.24253267074988857 3.79202584116069 0.0
53 2 2.8579187903256225 18.313327605087046 0.0 3.573830827006929 -0.4953528770711555 0.0
54 1 6.3556793704976755 1.0540500513428634 0.0 1.8427292079631685 4.651530160743752 0.0
55 1 17.509445702241607 12.18251049822847 0.0 -3.902293053260273 14.54882409314503 0.0
56 1 19.602187016599142 6.165127324955057 0.0 6.210479147003766 0.6345456882860541 0.0
57 1 17.976189780907408 12.502131228011715 0.0 -10.48206722824659 -6.312824337689871 0.0
58 2 17.356701305712793 14.364351139831156 0.0 4.87489770572027 -12.21459560910766 0.0
59 2 8.913977183828663 10.662192557154457 0.0 -0.632667822355975 -7.712919249730578 0.0
60 1 19.104023305053328 2.8963165498487076 0.0 -0.5145977830538649 -5.292641476544006 0.0
61 2 0.2258687351754046 2.6222422609360647 0.0 -4.23119561081276 -2.19234251723362 0.0
62 1 15.063135362387664 13.562538343644375 0.0 9.853293725236068 -11.390448533435302 0.0
63 1 11.66450266500492 15.023752915520097 0.0 7.697270840665531 0.4792614260934117 0.0
64 2 13.285596629309637 12.089851449295155 0.0 0.052963427134402136 -6.2194117062732275 0.0
65 1 19.071518787162454 6.671208371481818 0.0 9.983796570948847 -2.2671346665527325 0.0
66 2 8.731374868654333 17.957295655083716 0.0 4.085093714118292 4.407402919014491 0.0
67 1 7.918997309246292 12.973271488193864 0.0 -17.01054741692669 -5.340317097127616 0.0
68 2 12.108954432637212 6.812102795255029 0.0 -4.795849083589196 6.323475194869423 0.0
69 2 8.313263255652327 18.974722005379135 0.0 1.964159138279182 3.8791847251087153 0.0
70 1 5.0937985573921125 5.635350461054585 0.0 4.163495444137866 3.1969950307122845 0.0
71 1 0.3871010316499547 5.957875475558795 0.0 -2.5779447627806484 -3.6773866555643213 0.0
72 1 6.615800883872296 2.7382872140069217 0.0 -11.159463511134012 15.00006664923628 0.0
73 1 18.62489171594934 14.104663627826211 0.0 -15.372027598272426 0.7467017031195806 0.0
74 1 16.779626948783523 5.9119142420221165 0.0 -5.962614745405319 -3.2917623836552092 0.0
75 2 7.859450846931606 8.829759890787088 0.0 0.9199047604247826 -5.063419054189577 0.0
76 1 12.215240943566693 16.210827625698826 0.0 10.772509505628506 -10.401251060259602 0.0
77 1 16.399860514818265 7.598806390662625 0.0 2.0894553173275368 0.19796920566430448 0.0
78 2 10.905915899607393 15.199527035252371 0.0 7.9344667381921825 -2.577852861469886 0.0
79 1 6.098557843396158 0.5948806001627988 0.0 8.621055798152529 0.8077518471710284 0.0
80 2 19.18211097500763 3.986078607654732 0.0 6.145883503571931 6.489727189283367 0.0
81 1 7.820813403785145 11.133905610508437 0.0 12.793942200506665 -20.760383724893178 0.0
82 2 6.950900451105661 13.636511017068889 0.0 4.116692553683865 -4.249037053446955 0.0
83 1 17.786421538250572 5.71382380548713 0.0 0.3581463439373127 7.988381852180498 0.0
84 2 10.835799827306685 1.4229485445186898 0.0 2.2788541460944614 0.12608088658424524 0.0
85 1 2.5454129022967327 16.33591510934812 0.0 -7.3707311186184015 -0.7566208362691661 0.0
86 1 9.036155675455314 15.046962460919655 0.0 -4.229178653715749 -3.848903969643552 0.0
87 1 8.290781664608613 0.07185393725895056 0.0 18.855617696107373 0.8065543982689106 0.0
88 2 0.9819452788087032 14.81283348917032 0.0 -4.097960436659558 -1.2735106124764835 0.0
89 1 16.653807152521676 18.954561251246265 0.0 8.727118210618361 -2.5231745126799177 0.0
90 2 3.381221524526499 16.51910400305358 0.0 4.384435430632877 3.6585619054809535 0.0
91 2 14.898436552514394 14.696560580049482 0.0 2.0676217016049523 -5.846693603974373 0.0
92 1 11.438433197752856 10.945175973233559 0.0 5.3492020990524995 -12.527509852235953 0.0
93 1 12.786596164602084 3.4524674655209626 0.0 -12.372167202925054 0.960804008935216 0.0
94 1 13.324881344428142 19.35046326703679 0.0 -8.210541706821003 -3.9995199835033146 0.0
95 2 8.24179082984635 1.527097887001334 0.0 2.9991679110272593 11.961297855524403 0.0
96 2 8.873070351069028 15.778078768087905 0.0 -1.7334535719445638 -4.890355507023266 0.0
97 1 1.7561885059994893 15.352491060410788 0.0 12.893007029303693 -16.252539584712736 0.0
98 2 18.054679349895586 11.605690898297539 0.0 -2.3353705446499124 9.267012898914583 0.0
99 1 19.697800283787267 11.190859156977364 0.0 -3.0441879481636516 -0.2928322064400973 0.0
100 1 3.6858676258435867 10.697840399957759 0.0 -9.513530797435694 10.161768625730149 0.0
101 1 13.719932146792386 1.4250149507860908 0.0 0.8121709042116053 15.97133349629802 0.0
102 1 18.723943030576795 15.544153843740684 0.0 -7.0993706452220815 0.36794885919962456 0.0
103 1 6.981405985342994 11.112735283913311 0.0 11.229038110943835 9.328976600719674 0.0
104 2 2.4725178434159845 6.452620815044678 0.0 11.125553477580485 2.8096748020867124 0.0
105 1 2.9678412949950945 10.638081577617253 0.0 2.9932734036745434 -6.56321021606931 0.0
106 1 2.8207098429627155 11.520808671865755 0.0 0.48749460772745007 -14.915561671882678 0.0
107 1 0.16030267479094434 15.378219866556195 0.0 14.676439365380961 -4.338868704783447 0.0
108 2 4.267367372643367 10.223594679885197 0.0 -5.5687819096961775 -0.4874556426737188 0.0
109 1 16.79601864597289 11.243923744531676 0.0 -8.254691835301328 -3.9108441247633303 0.0
110 2 2.4130487527312687 13.725645682377403 0.0 0.6196267598348475 -8.382133668918085 0.0
111 1 14.0489438825492 1.015440420827138 0.0 0.47446210047756676 -12.863245659780997 0.0
112 1 0.9080369136793071 16.038596030793467 0.0 -8.113915820492467 11.032876190660598 0.0
113 1 1.0767624787625087 7.03825602916025 0.0 -6.253370494351426 -21.85081494958486 0.0
114 1 16.021595059329872 12.547665270805764 0.0 3.4403859893859012 -8.748331450373092 0.0
115 1 9.171973667243341 9.295386793709048 0.0 -1.7253196051426036 -4.5585225428847815 0.0
116 2 3.6865628520289557 0.2871674306875862 0.0 6.350332569403617 -16.157699937645713 0.0
117 2 2.7960647297603103 4.580991752692419 0.0 2.856854679135901 9.858487263698843 0.0
118 1 3.551496081297679 3.346203218804993 0.0 0.9965486588609492 -3.217323821663252 0.0
119 1 10.040187681016551 19.68531183219084 0.0 0.6724101560735516 7.0496042767034055 0.0
120 2 1.7610462574208334 0.48364941660605887 0.0 5.996397157022812 -1.7977877298700722 0.0
121 2 4.720850331311605 14.576168287674202 0.0 7.243719130708645 -0.9763754041362471 0.0
122 1 19.510880556315556 16.819765889999267 0.0 -2.2306491613802093 4.784832185781871 0.0
123 2 11.43876463605567 2.2402415778343268 0.0 12.921610577069446 -1.4216972249750583 0.0
124 2 15.669902514920482 6.844886102043636 0.0 -11.81233993849369 3.1425466205098243 0.0
125 2 16.973306371580478 9.239037087163387 0.0 -1.2214178037758208 -9.390565116255283 0.0
126 2 2.982384148597312 5.706904836163851 0.0 4.099202808403464 11.523194427292415 0.0
127 2 15.280812115277683 0.1624598702528162 0.0 3.727921814371949 -10.426231185344621 0.0
128 2 6.74972802591215 4.018685128934326 0.0 -1.9196505601566793 4.155184570353113 0.0
129 2 9.839206000371933 15.98688788831789 0.0 8.1316180085262 4.431013253627268 0.0
130 1 12.942104478247765 15.813566452246624 0.0 -6.315601502793708 0.19819609053059303 0.0
131 1 10.99221016168025 5.708569701536842 0.0 2.6484574600820254 6.549553032217012 0.0
132 1 6.262568889397069 6.894679802604487 0.0 -13.043918934728815 -9.649449137960111 0.0
133 2 14.579724035057355 7.316313604867445 0.0 0.19943893939423887 -11.982236736416114 0.0
134 2 11.002877826656265 8.011564624670882 0.0 0.03560806849548927 -6.373431416701931 0.0
135 2 16.59813962422395 6.727206047697426 0.0 10.941576395226 1.046286049191595 0.0
136 1 5.820107200477748 13.462341137820134 0.0 -6.310588466717556 -10.067449839633477 0.0
137 2 6.479182613289544 16.01714519690604 0.0 1.878675905355067 7.030265414910567 0.0
138 1 9.561028371180925 4.570624589946484 0.0 -11.726931645807085 -5.827184144251763 0.0
139 1 3.0166968796530345 1.4518184446263536 0.0 8.059316079336543 4.721594395154201 0.0
140 2 10.012012806397287 6.876065306969212 0.0 -5.976590955494269 11.220158684472993 0.0
141 2 18.56016258249775 17.996663493613973 0.0 -1.8645735376816093 -6.238312898196717 0.0
142 2 1.1220779683593574 17.073267467196384 0.0 11.977341530596558 -5.256559458125378 0.0
143 1 9.797259355154939 5.922286172372935 0.0 1.8507123390817946 -5.633179597232288 0.0
144 1 10.152878095856824 0.9388630389981145 0.0 -15.49430201893986 -8.091150041204182 0.0
145 1 17.270737258484605 3.538917098299811 0.0 7.408817921765747 5.212402378643543 0.0
146 2 14.713611093420823 11.499641291456124 0.0 5.903070521622003 2.6784993288468777 0.0
147 2 4.974776397414918 3.60522392287364 0.0 -3.4146368546973735 -2.1593649998028757 0.0
148 2 11.27753378392406 9.806074901125077 0.0 -6.172752423197688 -1.4013841749654297 0.0
149 2 12.867814908736621 13.637896891704944 0.0 4.996441729891761 -0.6898653948479938 0.0
150 2 14.510466776570546 6.3377689800088985 0.0 -6.853524729475307 7.871609596890109 0.0
151 2 12.801390827268893 5.281920953917951 0.0 -2.6271315719295916 2.513262271852816 0.0
152 1 18.79969123979624 0.2305969498610103 0.0 -25.3174500691205 6.111923466685124 0.0
153 2 18.564268486488984 1.5827776689667106 0.0 7.121935044928426 5.053180560869196 0.0
154 2 6.7524858285612845 8.607675553091447 0.0 2.8991280245766338 -1.9791803750043804 0.0
155 1 15.837344916712318 4.359072588514785 0.0 -1.7353587691209937 -7.176517907895298 0.0
156 1 10.661507139283385 4.500655037729477 0.0 1.464009957071936 8.33635472009313 0.0
157 2 8.669308358538125 3.803772899964453 0.0 4.959614965158023 -5.303636098960989 0.0
158 2 5.435206077612135 2.402852779064212 0.0 12.759648224584845 -4.871598308208151 0.0
159 1 7.288135711571207 3.0233894471777005 0.0 7.911765861477925 -0.10224675351471814 0.0
160 1 16.921712809814892 16.806415837118593 0.0 11.21594214093832 -9.384253837284385 0.0
161 2 7.3962917249236595 4.775497395824925 0.0 -3.7699339592908303 0.6379104421250238 0.0
162 1 3.99641633984308 6.7900805479552915 0.0 -2.001342483356096 -2.292219163625593 0.0
163 2 10.470740274280118 8.795605834753758 0.0 0.36490907456990945 11.99847613570444 0.0
164 1 12.133754657478885 17.900050893582968 0.0 5.037639156773655 -14.290866613447932 0.0
165 2 19.611180322522493 13.705439757354108 0.0 -1.9744293874566634 -1.385061611923734 0.0
166 1 13.349927757348702 0.3275087864150033 0.0 0.0100483668237888 -14.145578255620526 0.0
167 2 5.134138466811854 10.01502845600409 0.0 5.215467013219892 5.939084530295553 0.0
168 1 17.5095752947156 19.6304085853665 0.0 -3.743442253370943 -4.242606328556705 0.0
169 1 14.940857272344179 4.653846219611482 0.0 5.593526903564325 4.074352743727043 0.0
170 1 12.958080054423103 4.309358035578115 0.0 -13.315163790024604 -9.752530472251859 0.0
171 1 3.455857301373485 18.985822134631185 0.0 10.444517171612823 29.546975599009848 0.0
172 1 13.900067042605649 15.048240051090518 0.0 -3.979687352188342 -3.9701525579493655 0.0
173 2 16.362657578866234 0.5179976265175472 0.0 0.06790217406752229 -2.0701254618150076 0.0
174 1 18.902324108826047 9.167173061456902 0.0 -9.01185078140132 -6.334549310087475 0.0
175 2 18.16072160951721 8.063766725106237 0.0 -19.833158781795913 5.5815564377800655 0.0
176 2 11.915203208922616 5.245230452293341 0.0 7.67755927336944 -6.674399797294217 0.0
177 1 3.9167337968643636 3.9150262998804846 0.0 -8.179563488597404 -3.09204330764038 0.0
178 1 0.37701769073386804 4.58291445844425 0.0 7.257532929220075 -17.2835133243736 0.0
179 2 0.23107989507980267 10.195244044433368 0.0 -1.2181454622223162 6.9404268058206675 0.0
180 2 7.45890377802102 8.094535865875324 0.0 -8.450861721087637 -7.143623874673541 0.0
181 1 13.732985321874713 13.715468646332203 0.0 5.6893534550336735 7.1462807545646605 0.0
182 2 4.450643565036073 16.28876860150303 0.0 -3.8697156440036418 1.8585744060731775 0.0
183 1 12.501996115523847 1.2405656906753615 0.0 3.088888010351778 -6.904581907198716 0.0
184 1 3.0112408202120924 19.066172884639798 0.0 7.965423024712828 -9.516554536807664 0.0
185 1 4.666435868275148 4.510852965701114 0.0 -8.995527926703511 -2.064462573730836 0.0
186 1 4.03870179221817 5.672322545539377 0.0 3.4980285971793013 2.6062106945647807 0.0
187 1 7.805527573854895 2.3154567662987118 0.0 -8.975783556822085 -6.249358671838644 0.0
188 1 6.878109028891904 2.048102407756066 0.0 -8.94487144220171 -9.677736325911091 0.0
189 2 12.585599256414152 10.624865496110159 0.0 -5.760582676084359 5.74496483240604 0.0
190 1 4.776112470957208 7.1883920897902955 0.0 -6.0987758450783796 -2.0381691248346487 0.0
191 2 7.8283833529014695 18.16478689878856 0.0 12.119776470616523 -2.219750290043125 0.0
192 2 2.6751562973703433 3.1520879800287562 0.0 11.269158861316747 7.479470412505117 0.0
193 1 12.517344410901257 11.376467622591022 0.0 8.352690000351744 16.76019602153045 0.0
194 1 14.016501058006277 8.583071861319112 0.0 5.338365141614789 0.7648348179462267 0.0
195 2 17.77968582979829 0.6037615795979174 0.0 9.840876930826187 4.127209529226484 0.0
196 1 13.15629146953237 9.947958201108479 0.0 9.448346820473084 -5.381737311798747 0.0
197 1 11.938290547094756 3.8189721381463997 0.0 0.8911189935948234 13.412902495750338 0.0
198 2 14.183866014501715 9.403593311643968 0.0 -13.982637946058565 -4.575552161128036 0.0
199 2 6.304128657043272 5.191093725907312 0.0 -0.020586435096664718 11.769498960180544 0.0
200 1 7.113287393964927 7.253485567434066 0.0 -1.8806734978963573 -1.8755717187847034 0.0
201 2 9.854854699505463 9.761601953959213 0.0 7.6449999232577515 8.369116869173357 0.0
202 2 11.856075844294146 7.88382063162702 0.0 2.9728075520617394 -2.459292461989755 0.0
203 2 10.652908796771145 16.63201121564823 0.0 -1.8424976777909086 -0.9615846661024225 0.0
204 1 3.8362701619000146 13.496356446541887 0.0 2.4010882575909003 -23.573282339296934 0.0
205 2 11.15377394143003 19.09904556615366 0.0 -0.5078937326705587 -9.370610079500949 0.0
206 1 6.612400822909117 7.6821750357741925 0.0 -17.399061889612447 0.6175277226214037 0.0
207 1 3.5838768666468215 8.23241785036168 0.0 17.03022936202803 -3.8431171018459094 0.0
208 2 10.96322856115457 13.849610579215593 0.0 -0.7393164014064457 9.382517955902529 0.0
209 1 10.150840072611741 2.50404574102424 0.0 0.997083825995016 6.457395197513597 0.0
210 1 9.57139503256126 7.646341326799632 0.0 -6.050260087697471 8.315208546131704 0.0
211 1 4.7085305356466645 5.058481615719462 0.0 -11.975749155120841 0.04105827308592803 0.0
212 1 5.479177023131783 11.29450058122342 0.0 11.286468669879152 -11.181846500062539 0.0
213 2 3.085979014513459 12.976645936230678 0.0 5.3388973211010375 -0.7059313717717208 0.0
214 1 15.029691433305643 1.1164580835586406 0.0 -16.275643557581645 -3.1802973169818363 0.0
215 1 3.7167758489321785 14.440292603062748 0.0 0.3317322729013923 0.771601023136499 0.0
216 1 10.98934237960257 7.261938046817007 0.0 -13.440480449955139 6.36214411080894 0.0
217 1 5.195447160499386 0.8399186199694412 0.0 11.038399008360381 -0.49200847406217246 0.0
218 1 11.65446304244345 15.641653712099943 0.0 0.3906834480312637 0.5582489892821263 0.0
219 1 13.86835338084376 3.763677797331358 0.0 -7.347438405821465 -1.1461698656664396 0.0
220 1 3.9225348267196813 4.606516456690434 0.0 -7.013503469335259 14.332455712022831 0.0
221 2 10.052442416300226 12.852851764879741 0.0 1.0201482625928477 8.179099134502797 0.0
222 2 7.252829495910696 19.497060246274167 0.0 -6.234674029543005 -12.718811316028756 0.0
223 1 6.141335776216878 7.812786848613803 0.0 3.7032715689724016 -6.067364731927502 0.0
224 1 6.4762603775668195 11.864002516612649 0.0 5.843919409610096 12.20231173121225 0.0
225 1 1.4904708506559456 16.042551375801178 0.0 -14.7468426359851 -3.6813278853020495 0.0
226 1 15.486706126502362 15.22829259392595 0.0 4.390596076781026 -10.587146740438392 0.0
227 1 5.04715768751678 13.217662318919675 0.0 18.065157269494048 -4.97558624036157 0.0
228 1 4.670340412637303 15.555729371933637 0.0 -13.920066330400875 6.4891504878140145 0.0
229 2 17.709886764059675 10.23857313543752 0.0 -8.577980108596897 -9.308396412820004 0.0
230 1 0.7418170427434494 9.02557339124501 0.0 -1.616276483960358 0.3623987153754871 0.0
231 1 4.326096611364722 11.151616146110062 0.0 -4.2527171371954955 4.1491226727294235 0.0
232 2 14.005264972661342 17.27439858340711 0.0 -5.704657667482277 12.96039495517649 0.0
233 2 15.8968586801687 15.867341948103046 0.0 -12.638869280457307 3.771623722044221 0.0
234 1 14.757199201884157 4.150385711005274 0.0 10.519337518551787 8.616256349280134 0.0
235 1 6.507006147466387 9.999986079718761 0.0 -4.997172192833798 -4.480988726076225 0.0
236 1 11.540317989627564 17.516806779589057 0.0 9.837595090042276 0.6913607772129656 0.0
237 2 9.095353919708707 5.27408234181866 0.0 -11.499758357490064 -2.597039900673013 0.0
238 2 17.461766143071316 7.2498711503824484 0.0 0.37728341013298605 8.533801511262068 0.0
239 1 13.655335384353219 11.129766235241426 0.0 2.295630718410325 12.907355745838872 0.0
240 1 13.097565782254208 16.30005372810477 0.0 -6.2533396446595875 -1.2705802579083634 0.0
241 1 7.98281556791195 10.524470792177473 0.0 -7.7999457929765015 1.595722040578816 0.0
242 2 17.16352577345435 4.466391313020961 0.0 -2.903883127722897 0.12640245994961075 0.0
243 1 16.25790714077217 13.352691743260648 0.0 5.662300852694977 10.978159442232524 0.0
244 2 17.78886355136593 15.364732680363309 0.0 -3.830162264087555 12.002995312537976 0.0
245 2 10.87296173241359 12.800470566402817 0.0 -6.42029892851094 -6.6428123880283305 0.0
246 2 0.8151541991735516 11.998027492883383 0.0 -6.259468189211854 0.3113060402229928 0.0
247 1 7.101374679102616 15.57010052269393 0.0 -9.12038311054227 -18.498519401570363 0.0
248 2 14.841738711291933 9.989199555669721 0.0 -5.33786304759684 8.687984787291963 0.0
249 2 6.212693888305066 18.083596350211614 0.0 3.73591321899387 -13.232078182808873 0.0
250 2 14.3334701996027 12.776614453428497 0.0 -5.472129540048707 0.826555298616824 0.0
251 1 19.23474360866338 8.542004958295617 0.0 -3.7794223117824504 11.52415776860884 0.0
252 2 10.727665259551788 3.5954670990423114 0.0 3.001098241569595 -9.116022113063961 0.0
253 1 5.582073170251953 10.876564096252649 0.0 -13.812925515957025 -3.870858226593735 0.0
254 1 4.532042278271137 0.9906042128695879 0.0 0.5895414122214698 21.801526476965012 0.0
255 1 13.185161197509991 0.869022740400154 0.0 2.5994974449658454 8.201602203731852 0.0
256 2 8.307895696306732 14.03898380740319 0.0 -2.0962901871133077 2.7485111552578787 0.0
257 1 17.654824968748816 18.296118063373115 0.0 -0.8638294762046222 1.0678670417727025 0.0
258 2 1.5044453989521755 10.702314218712973 0.0 2.0756305400800237 -5.417889040901764 0.0
259 2 13.380282375020014 17.903845343658134 0.0 0.9640392429940836 5.851983466557443 0.0
260 2 4.299109116309996 19.335734165681952 0.0 -1.806191837757201 0.01023531860954819 0.0
261 2 7.1101313841797875 16.83338966979993 0.0 5.241049066957173 -4.081648816241523 0.0
262 1 14.208772957874206 18.405352506101185 0.0 -6.754063301436151 0.9731243743753175 0.0
263 2 16.327347865564132 10.44109114985534 0.0 0.030524080275394966 -1.3503149275559423 0.0
264 2 17.9685078319847 13.692657754288494 0.0 3.8950597674365035 -1.113725399519894 0.0
265 1 16.187667282802494 1.510618336995379 0.0 11.363494404903257 5.908805698537355 0.0
266 2 7.194295672102952 0.6531474285876352 0.0 3.4504167453586057 2.6944808215380043 0.0
267 2 19.4111846473415 14.50160049323266 0.0 -0.012374218244980502 -10.687601907126515 0.0
268 1 4.42672413342639 7.868779868203976 0.0 -6.124794085981332 5.651203916757902 0.0
269 2 4.30983305350275 1.798422593861882 0.0 2.9007790390996866 2.8574566603263363 0.0
270 2 9.945118339413272 11.132439956151353 0.0 1.9635218238532113 -9.484378008043645 0.0
271 2 2.972562594835691 15.634990240775027 0.0 0.8246099576778516 7.472677434505287 0.0
272 1 2.063393834896292 11.36927440353494 0.0 -6.822245310786794 -13.581659885199247 0.0
273 2 5.2680210995270125 8.247826379659205 0.0 0.18992458184286606 2.8087870349126067 0.0
274 2 16.972850773796143 13.48827377047301 0.0 4.809578713544833 14.858900974532402 0.0
275 1 19.701570658949457 7.419395590963373 0.0 -11.805047972948365 14.174616293028288 0.0
276 1 5.720678177847134 3.0769749503027852 0.0 0.03910975883839764 4.02864585841639 0.0
277 1 6.540050812458729 0.27789992378999506 0.0 -8.07874410971768 3.8945170476277817 0.0
278 2 11.780738514854313 9.032779655532016 0.0 -0.6999022348234367 1.3613434851311887 0.0
279 1 1.8655060230069531 5.823427803213306 0.0 -2.140725443767868 6.3004670303298305 0.0
280 2 9.79972495953321 12.016088874197834 0.0 5.341119222625137 -4.526524801125802 0.0
281 2 5.388343925790846 15.923574736837013 0.0 -8.552274174754732 3.7501256931403537 0.0
282 1 1.980490420774131 17.801531164836707 0.0 -10.061257593742013 -8.177782257228701 0.0
283 2 14.918396325556724 3.0827077034694805 0.0 -5.293124529783023 -3.5328445669217925 0.0
284 2 6.308401957624992 6.053633793878301 0.0 -0.36080869293781187 -0.889367235887151 0.0
285 2 9.528228605035121 3.1533277890816502 0.0 6.00428916839012 1.4837548917390628 0.0
286 2 0.7596579366531522 1.9767003650037538 0.0 -8.272854943693895 -3.036257185880358 0.0
287 1 4.234331213160429 6.260809357033645 0.0 0.8580974758921303 4.168255231289227 0.0
288 1 5.590638072598948 3.8813073331504864 0.0 3.75646799866929 -6.79517272730939 0.0
289 1 6.516523698573556 10.950300445726995 0.0 0.009864292800901049 27.20976239823679 0.0
290 1 4.331590878244149 3.2040206876475397 0.0 8.952419171854311 -6.293399339653897 0.0
291 1 1.7963175131546003 7.999985395005566 0.0 -20.13898771564106 8.616814011157034 0.0
292 2 7.9432229498773275 12.04992638386163 0.0 3.699968109614254 -1.7635091094512896 0.0
293 1 0.4494653121083281 7.977728068846789 0.0 -22.619339421551924 6.801725491025427 0.0
294 1 15.660649910697314 13.260462250777731 0.0 -2.710593678288357 -2.102037714270685 0.0
295 1 1.050661043655905 9.919330865663245 0.0 -3.8956780612531348 -12.533046058054362 0.0
296 1 1.1836226766958802 3.772096656052773 0.0 -2.1102953971536484 -0.3522660683003516 0.0
297 1 0.6088018557037894 1.2721477023689938 0.0 -3.7426311533038796 0.06728280808445372 0.0
298 1 18.8349002525867 7.402032515272779 0.0 1.709582678597798 -8.774347153988906 0.0
299 2 16.0951780196298 14.464131922423965 0.0 -7.586707141093824 -1.2287112531033566 0.0
300 2 12.820862034575798 2.5112408574754608 0.0 1.4743814651466773 0.6031138736345564 0.0
301 2 11.90444756929806 14.307379624040287 0.0 12.66841791841549 -5.139577489283328 0.0
302 2 14.987418854379236 18.825873601893164 0.0 6.789020501853432 -0.11823932447020825 0.0
303 2 17.005664351699615 1.080067336154076 0.0 4.459173960430426 6.30230728219614 0.0
304 2 7.2757622671278765 12.618152932116486 0.0 3.777410146134549 11.14599022169398 0.0
305 2 2.4355977299601905 2.169167196516326 0.0 4.187599933931193 2.4310590035860358 0.0
306 2 1.115824428497362 19.692846074827628 0.0 1.6635349224867297 2.9304705236607806 0.0
307 2 7.257001889554006 6.043047815091205 0.0 1.8928612978985708 -1.712607366096186 0.0
308 1 10.252155822193775 0.4694193970693955 0.0 -1.7961042637674092 7.754188551652799 0.0
309 2 18.34182767712534 18.753552849837835 0.0 -12.965406473945919 -13.244561056613176 0.0
310 1 9.562887050466507 2.3294858518924544 0.0 21.231907095332065 1.3123158569675288 0.0
311 2 5.035105038052908 17.6011383694288 0.0 4.00987965691501 0.6502549596730012 0.0
312 1 10.857993833728878 4.961089155932685 0.0 -19.646558788444064 -4.054865293136212 0.0
313 1 16.376277970378148 16.50203024143362 0.0 -13.784096734081489 9.365516829534974 0.0
314 2 3.5325846334682263 2.352424256008309 0.0 3.1132123822067337 0.024123690449285834 0.0
315 2 7.551270655493157 14.727830730002529 0.0 7.176978917726766 1.3193092266949011 0.0
316 1 13.349664958431994 3.2510280791606605 0.0 0.28069088698852174 10.482407069544216 0.0
317 2 18.84266872891489 10.105773096613126 0.0 10.745638619906316 19.052520828994876 0.0
318 2 12.63026218432601 18.69040140230011 0.0 -4.520047981745454 -10.021585240477302 0.0
319 1 3.0747928224591825 12.141478703888092 0.0 3.736601256902822 -4.497402368840092 0.0
320 2 15.428129166524263 9.306420190745893 0.0 -0.5585434029079297 -4.853316510498054 0.0
321 1 17.444572343248737 6.236787181571174 0.0 1.2875703312966755 -5.139603681343628 0.0
322 1 8.571352237800303 9.400869658240918 0.0 7.794321392966336 -0.032777747537229916 0.0
323 1 16.02973928532109 18.575908860141183 0.0 -1.2618031413283757 -1.7381097008733872 0.0
324 2 14.703043364245062 16.46303783671678 0.0 -1.0517109167938314 5.096419908755252 0.0
325 1 12.683390749522125 7.605941790667172 0.0 -0.3530573373874855 1.2929870004594564 0.0
326 1 3.204752427647483 14.69455651714529 0.0 -3.3651790497191327 -15.01630201396523 0.0
327 2 17.074054853780797 15.893346712212885 0.0 4.522838944444926 2.701163718476024 0.0
328 1 12.83781518855627 0.5167288565363084 0.0 -11.254624365204592 -0.27161680670077243 0.0
329 1 16.756840574905354 2.9759723747526095 0.0 -1.8264246163534807 2.3014522713024474 0.0
330 2 1.9848938489176247 3.999435818695862 0.0 12.933153544493205 4.17773231284198 0.0
331 2 8.868806350604075 11.612790631159557 0.0 1.0923409624818636 0.505734974464547 0.0
332 2 4.509097480668353 9.093870214831572 0.0 -3.571285512368486 -6.581888192100618 0.0
333 1 1.0734092818878 8.47869907470254 0.0 -15.019906545468649 26.052300816623273 0.0
334 1 17.490075092250883 12.675339797793388 0.0 -12.219847295796358 -19.435257189395944 0.0
335 1 11.609705264450962 12.984032487291234 0.0 -6.126925931345575 -6.495724535208798 0.0
336 1 7.806904169560231 13.487175195591062 0.0 7.550737510272743 -0.6722588671826086 0.0