ITEM: TIMESTEP
0
ITEM: NUMBER OF ATOMS
400
ITEM: BOX BOUNDS xy xz yz pp pp pp
0.0 19.7609 0.0
0.0 19.7609 0.0
0.0 10.0 0.0
ITEM: ATOMS id type x y z vx vy vz
1 1 7.6359163479187435 19.121508467229138 0.0 1.3073480593456563 14.174790214863956 0.0
2 2 1.571829484619328 19.722504125069072 0.0 5.901636574199671 9.436523498763844 0.0
3 1 1.0758241601842158 12.449396875148741 0.0 4.473306001085592 -1.513853626007748 0.0
4 1 9.112600926002207 14.890011067887999 0.0 -0.08847438862322388 4.085096178964788 0.0
5 1 15.742169202873239 9.575657792462344 0.0 1.1779262621757247 4.225306458556538 0.0
6 2 6.832275606946636 8.550978843866066 0.0 -8.826061346737808 2.06569685134895 0.0
7 2 11.221214721340639 6.578047160623295 0.0 -1.280092108485144 3.4211096799169383 0.0
8 1 6.055501469509962 17.812153299511376 0.0 -3.994861227924481 5.490919533392084 0.0
9 2 18.574092691903022 12.050150783583291 0.0 8.768238134981344 -0.5959295495021144 0.0
10 1 3.3529848642138926 5.219163133898351 0.0 -8.80506734376264 3.8949720700779835 0.0
11 2 3.447105915516376 18.73096329185226 0.0 5.849535233055996 5.437280740312033 0.0
12 1 5.919670575417715 10.81372429882924 0.0 4.936692772778061 -4.927259532385059 0.0
13 2 4.746660636317913 6.9989585213915655 0.0 2.3052222601077466 -4.6085427660709515 0.0
14 2 4.359323956287932 14.898628604513505 0.0 7.347295872696493 1.1903653964756389 0.0
15 2 13.103535576720965 14.687109842006356 0.0 -1.6930419018340854 -5.5834278957290095 0.0
16 1 4.153599262244956 8.926887844971645 0.0 -2.157307969449696 -10.40229703130807 0.0
17 1 4.901667240554351 12.624415253427584 0.0 1.7163104610348858 6.227275654655701 0.0
18 2 8.63923663255231 11.3734819004096 0.0 -4.1313230795213975 -4.01894015219261 0.0
19 1 1.1216463334846845 15.30843249637626 0.0 0.43945648730834436 8.169365177084495 0.0
20 1 7.01345866256126 13.624659950247144 0.0 1.5981935284228304 -1.6989197429590408 0.0
21 1 13.833553496200128 13.48174221863268 0.0 19.219226847702256 -14.303065820453739 0.0
22 2 0.46835332221890186 17.228431611505254 0.0 -11.924985612605246 -5.272340969768191 0.0
23 1 11.605184902545272 11.636234925461295 0.0 3.20605743137614 -20.873740817928407 0.0
24 1 7.485417962167975 3.7091053774111677 0.0 0.9835607256874708 15.16179833607661 0.0
25 1 9.977355478181495 13.97065095008608 0.0 0.7331190502193722 7.117144756947099 0.0
26 1 11.165340604593428 10.871904032998692 0.0 -3.548744619125348 -7.801340224649511 0.0
27 1 3.8475416588976485 17.57329367128747 0.0 -4.477658242085476 5.251465832127101 0.0
28 1 10.385963988879206 8.965501031484564 0.0 11.58665660443658 -2.950759042215055 0.0
29 2 19.328892997181615 7.799401720203206 0.0 -4.434619052047445 -8.677714865049555 0.0
30 1 12.754545772151323 0.8454140207456604 0.0 -14.494515127627 -5.098870915011731 0.0
31 1 7.549225423488385 6.199418957586661 0.0 -0.24525265503712954 -10.892537676856563 0.0
32 2 19.588111462359617 11.303628378828481 0.0 0.6958869682141495 0.7353535388613688 0.0
33 1 12.76315741083625 0.37017692386962797 0.0 -12.832720360120714 10.969733530557864 0.0
34 1 15.063183459746618 13.055161049831861 0.0 8.803555501670528 -3.0392504170525148 0.0
35 1 8.2465848251147 8.961576277300297 0.0 5.27272506654126 1.2075064136752314 0.0
36 2 14.661012394724416 6.5214866919469525 0.0 14.421215985173637 -4.207968969514497 0.0
37 1 14.581026164643312 8.308488862513933 0.0 -1.4487345903426605 6.79600066398233 0.0
38 2 18.534184064741844 0.20276879212982818 0.0 9.703392045960998 -0.653048577197147 0.0
39 2 10.650753091114819 18.928739001172787 0.0 -0.8807359354391847 -11.700798880941964 0.0
40 1 16.3514700565907 8.414975322168928 0.0 -1.3684707676350687 0.19749158555928217 0.0
41 2 10.908622427994043 10.203309710042506 0.0 6.446150410760381 0.46626988962339116 0.0
42 1 13.092805130226047 18.211151959345003 0.0 -3.089268884991066 6.727210718492542 0.0
43 1 11.96497881891552 19.736320823824858 0.0 -7.4078988675236666 -1.5242383895102143 0.0
44 2 12.945466685562101 11.060549809829364 0.0 -9.57525969442602 3.4585475967640926 0.0
45 1 4.724580496375409 9.36968525780955 0.0 10.910407672153246 1.5000141157368612 0.0
46 1 0.20683499750635595 8.47800573798153 0.0 -1.9353647788440849 3.059336716112048 0.0
47 2 6.888658447248896 17.470205962273976 0.0 0.46566663381339546 9.276878332870922 0.0
48 2 17.340053823847416 7.881925487637839 0.0 11.30448769066954 5.516384385686159 0.0
49 1 8.387484448920839 9.488361220920297 0.0 2.5032955711273157 -0.3222433270083826 0.0
50 2 17.76517344946911 0.3751207881275086 0.0 0.5542392070477792 2.271125956211954 0.0
51 1 10.794884347715508 0.7710858874321164 0.0 -3.1310323534756397 13.515198057298585 0.0
52 2 14.570917797209978 0.08765440382823442 0.0 -0.5951489670789096 -3.118530564903627 0.0
53 2 16.701394997647228 3.4092273444195085 0.0 8.958014742024243 6.1575998277732005 0.0
54 1 7.314739687747342 10.053188668195219 0.0 -4.997222890604763 6.516513911088026 0.0
55 1 12.364847523307844 8.997535579152709 0.0 -12.145297200866215 -7.080471136985364 0.0
56 1 17.265192451650176 4.02046984921261 0.0 -16.521493951043674 -9.063111009545008 0.0
57 1 4.416814071403668 8.481387190147782 0.0 3.702343886866984 7.411462734322706 0.0
58 2 3.890637124366234 11.59161529796582 0.0 3.7954830774597457 0.7876365933751842 0.0
59 2 13.120667032934307 10.067954781199413 0.0 5.767380253548082 1.713252853265226 0.0
60 1 1.668071409496764 3.4386663990577384 0.0 5.716118701562699 -1.416776391802899 0.0
61 2 12.128135529730113 7.3912287686035505 0.0 -3.5955875781515916 2.9115750418269783 0.0
62 1 6.506076930530962 12.640250937461913 0.0 4.324080914736636 -10.55160771325345 0.0
63 1 0.949337287813417 16.555902746589926 0.0 -12.117278692202467 10.251909708050036 0.0
64 2 0.5413842019765319 7.339689381006711 0.0 0.21394797214070768 -3.7673139872969883 0.0
65 1 18.38811387593541 8.054260808755275 0.0 5.658804533430243 6.129224121682089 0.0
66 2 18.426657432335602 16.563256506526514 0.0 -1.6123172864607085 4.0896983590008436 0.0
67 1 10.899770299887603 16.6764812777841 0.0 -15.20602986265558 -9.696080194490115 0.0
68 2 3.0949053986081396 12.704128558483255 0.0 0.8311204148373567 3.283854102133885 0.0
69 2 1.4588515043047918 13.356458677255368 0.0 0.03201875861166132 2.801910047060204 0.0
70 1 9.799214162147667 2.501484855176942 0.0 0.6551872213668133 1.7627351636297668 0.0
71 1 16.092074216397215 8.040536144810819 0.0 4.029341791594607 1.8895098541009256 0.0
72 1 3.5662399515771317 2.807030082090061 0.0 12.881556231329927 6.353987370290046 0.0
73 1 1.1003054810824102 3.8465597879427498 0.0 -1.069322444150728 6.359932756402484 0.0
74 1 11.777200701328024 9.628799085646262 0.0 -0.9292634890966132 14.631737337529986 0.0
75 2 5.641467378287766 9.751576869507135 0.0 1.0930953348748451 -6.970932674541879 0.0
76 1 5.334935893566473 8.667758719544175 0.0 0.9483995427775491 1.9964391654081866 0.0
77 1 19.212587287944825 8.84781749961272 0.0 -8.379986314217744 14.28257332879299 0.0
78 2 9.422282563343915 5.506193838675608 0.0 2.0697861482246696 1.6530204771782582 0.0
79 1 5.464467230350161 15.943929315579048 0.0 -2.4529557700272773 -11.018792957222265 0.0
80 2 12.878065206439766 4.4914614089288625 0.0 -1.5601636207691463 7.004338838045748 0.0
81 1 9.055748097178117 19.34886341783062 0.0 -0.5386036578902764 -2.452899600475351 0.0
82 2 6.224559211511016 7.803691386311384 0.0 0.7907173818316227 -1.9968245406176248 0.0
83 1 14.571831139963486 4.95228455880751 0.0 -0.8464777365668588 -2.7822313756449617 0.0
84 2 7.427955177809616 12.052801001778372 0.0 4.170917110195875 0.35227078118728566 0.0
85 1 13.962238416717055 14.927434406743478 0.0 2.8491028617275544 0.26903949497493385 0.0
86 1 9.279052064838458 3.1865232747635432 0.0 -13.309574722130773 3.4878362184953478 0.0
87 1 14.812769829978127 0.8557792553593001 0.0 10.338330276498311 -4.425985281150467 0.0
88 2 17.92152485780075 5.784849944662541 0.0 -0.33683862274037724 0.5214580475562494 0.0
89 1 0.7258470472171232 9.52282054760732 0.0 8.881820044732205 0.5225689582451783 0.0
90 2 4.384408454763364 5.691994449794668 0.0 4.303427054358858 -3.84066785685891 0.0
91 2 19.649403672917906 5.364793465692052 0.0 -10.26337041294996 3.622231550653063 0.0
92 1 6.339819506332751 6.311856083873935 0.0 16.1065736794774 9.97716184639605 0.0
93 1 9.086607048456758 9.823061487052389 0.0 17.989008278975366 11.498087408501256 0.0
94 1 7.700117803821647 7.299087233779501 0.0 1.9019779556366736 -5.412871322083553 0.0
95 2 6.249549322942939 0.689044892603834 0.0 4.406368570800305 -1.7974948042406282 0.0
96 2 14.214054455149427 5.646995227307761 0.0 -0.466242699693482 9.963474865952325 0.0
97 1 17.392949177746324 2.3816445898452754 0.0 -14.446027374777286 15.923878195457457 0.0
98 2 17.959238150093373 9.142513581696317 0.0 0.6887739572647281 -0.4676981393032468 0.0
99 1 0.2244972202758689 10.187498171958566 0.0 15.912552743593507 -20.655730167772287 0.0
100 1 1.7249348807451814 10.121626283428506 0.0 4.790733430983564 -7.674496513367 0.0
101 1 1.4506475419775804 17.61856637502053 0.0 -3.1087765029134844 3.9191143262050763 0.0
102 1 2.25262005824404 3.231098452411849 0.0 1.825544021755242 -3.1539281230449805 0.0
103 1 19.26188472543166 0.47234039725656335 0.0 6.143044719963838 8.87672719649404 0.0
104 2 8.20467974078112 18.356685747638466 0.0 1.448824186159922 -1.4022779872450735 0.0
105 1 12.575227013207016 1.6038892638829605 0.0 3.4099307197540263 15.944384841063412 0.0
106 1 8.429274435494964 17.53956687506692 0.0 -3.075108450655705 -3.216775382733214 0.0
107 1 10.261550828311627 16.800110993961432 0.0 -2.2703606179817006 11.272449377941639 0.0
108 2 7.761520413404744 5.18186978648695 0.0 -3.886116410899556 -2.196207070733203 0.0
109 1 18.422848899064373 17.345928653174997 0.0 -4.927489494267822 2.781362264807928 0.0
110 2 4.572176563565299 0.9491280985698406 0.0 6.879164231423376 -14.007927619963926 0.0
111 1 19.335542134152714 2.680190742717052 0.0 -6.404243867259322 4.524442759784317 0.0
112 1 5.685556409957642 17.502463722306977 0.0 -5.701666792495617 14.126485896407432 0.0
113 1 13.636574381131927 10.643291709801632 0.0 1.509896289321158 -1.5442328964205314 0.0
114 1 0.3984918386964832 4.772857732510455 0.0 10.93256806362773 7.60256430003682 0.0
115 1 5.43392466837143 16.802506738578135 0.0 -7.9344834246807245 -7.224017408103671 0.0
116 2 19.3509889500605 18.248060582993418 0.0 -2.3788730363106936 -3.1663031474561207 0.0
117 2 7.682840314046049 11.212879383749856 0.0 9.32646890332065 -7.398248414859151 0.0
118 1 8.285833939258696 12.441384158758122 0.0 -4.603460911039093 -4.3688712543759145 0.0
119 1 14.862509368055678 16.309197289319513 0.0 -5.0075980852679525 -5.191422703707572 0.0
120 2 0.17256672835938233 19.448071411379377 0.0 3.743085241589846 -9.261961349795186 0.0
121 2 14.372067062138434 14.274278641904592 0.0 -2.98786536024235 -5.589072333680293 0.0
122 1 1.8328494667475976 11.840240863732877 0.0 2.124166304829743 3.537945701299201 0.0
123 2 14.413595645315064 3.897945523269012 0.0 3.146192426584971 -1.4751426506536691 0.0
124 2 18.50403089864159 19.061707641128653 0.0 -3.3260485497349186 1.109538286347974 0.0
125 2 16.71912673769552 15.572391804715036 0.0 5.679591062847106 3.7149580065347485 0.0
126 2 6.210509597153656 13.801492566363443 0.0 3.1077594609967427 -15.70456753035816 0.0
127 2 2.5083985988123105 13.850516770943328 0.0 -2.5121530944176396 -10.59371540800967 0.0
128 2 2.267579466504996 0.9144263646177172 0.0 -5.3721989394229706 -0.6486205397396819 0.0
129 2 1.627210874338111 2.4055286182143223 0.0 -0.33798254919160314 -6.319645115726019 0.0
130 1 19.547165944165748 6.680935435185202 0.0 -2.5475611105763196 20.16013219428713 0.0
131 1 9.786865404130426 6.6432380082756115 0.0 -1.2898941521473055 7.280292692647257 0.0
132 1 15.792858144342471 12.607143624129689 0.0 3.1743344722201012 2.3919830503966195 0.0
133 2 5.194435684665863 11.131705722879854 0.0 15.78469420244537 6.468985546678778 0.0
134 2 13.112336487175556 6.572522719240632 0.0 -1.837037815992146 4.636477833104232 0.0
135 2 10.373183891918584 5.427420768009135 0.0 0.775425014103136 -1.6193590033145393 0.0
136 1 16.374899049288715 12.249226247839717 0.0 6.25959707427093 17.49193750257402 0.0
137 2 14.694796243503871 15.38693057155229 0.0 -1.6665581689272622 -2.8553448768768153 0.0
138 1 5.647052885538042 13.127934193065341 0.0 6.4394899559959216 0.33370065665370674 0.0
139 1 16.65241470449602 1.6010616023151218 0.0 -11.698128946770964 -0.6800701668003116 0.0
140 2 5.6268409955045975 1.229210232037551 0.0 2.2871824217891032 11.052577228785433 0.0
141 2 9.493149435678959 16.85457447527533 0.0 2.966083359164787 -10.01723747390061 0.0
142 2 16.309079962899936 16.43017643066791 0.0 -9.278401885069728 2.343171797433252 0.0
143 1 3.005958708643401 4.518934948242789 0.0 9.000950923363916 -0.9834719534440322 0.0
144 1 5.1275692581043915 17.255638531240802 0.0 -3.161792541907557 10.061439478518357 0.0
145 1 7.041600631701205 7.556602794709354 0.0 3.111048986474672 2.515772149438032 0.0
146 2 18.354371497925392 15.438786647878173 0.0 -4.609139676082705 -2.5683402434459057 0.0
147 2 9.942591672978306 9.896642350074613 0.0 3.8473835173940616 -6.166368492535425 0.0
148 2 19.400140052045103 3.479532419492865 0.0 -6.263083226020655 -3.0182157644633194 0.0
149 2 10.46710399508684 11.686234312952283 0.0 -6.884142582666737 -7.121876925704588 0.0
150 2 19.401724796002338 12.735025980143492 0.0 -4.028100092834472 4.692810068098082 0.0
151 2 11.127779309048796 4.740845243558024 0.0 -2.4193343385596897 -6.585736571696287 0.0
152 1 14.310414734986878 16.182702383159807 0.0 0.6565005064975302 -2.3761663514858284 0.0
153 2 5.382972404822476 7.822839904463362 0.0 -0.4385729477139382 -7.307412662761694 0.0
154 2 2.5381247431750165 9.673611255262438 0.0 -3.658343897965696 -2.0684201382312213 0.0
155 1 18.49657133867589 13.333320494355885 0.0 -21.267641341551347 1.4135253154487477 0.0
156 1 10.026623928548029 13.270165354192565 0.0 -1.050255937445028 8.124986222023985 0.0
157 2 8.060652679505845 16.72910211628552 0.0 -7.406995277826627 -11.870106255644279 0.0
158 2 1.966816811201276 5.907761129205142 0.0 0.20113050173776087 -4.815821267031676 0.0
159 1 4.2293576476776895 13.913202687497101 0.0 11.58427607440397 -2.0147857438567436 0.0
160 1 13.318320754348747 0.1759223942121283 0.0 4.377469096322525 0.5984333715542133 0.0
161 2 3.302288918948304 9.04437482184613 0.0 1.1256572244127625 7.316069635163582 0.0
162 1 11.690366827446239 0.7129657513304293 0.0 -2.467772800331611 11.371092066542406 0.0
163 2 18.77120337457765 1.226375622163972 0.0 -7.129352510446317 -2.801107607034434 0.0
164 1 10.909577703973891 9.521572491324772 0.0 -16.168707304936294 -0.7727412049195117 0.0
165 2 17.72380708660601 17.889060164293305 0.0 -8.574834529670078 3.282774667465929 0.0
166 1 6.597273683046072 4.706095473150465 0.0 4.69555597569525 -3.9394227080765143 0.0
167 2 0.3802886915143196 12.073254411468273 0.0 -5.990916825359591 3.5440693669886523 0.0
168 1 9.990542543567058 4.108036263738879 0.0 9.977958940699923 5.390962852151677 0.0
169 1 5.421280013164416 4.570036609497857 0.0 8.408594892746773 -20.115176894926574 0.0
170 1 11.01276130994184 14.907860190365245 0.0 -3.170722922431406 7.245396809617176 0.0
171 1 9.686177693994177 3.108990838042839 0.0 -6.355929784786841 2.5832223031577115 0.0
172 1 3.9500523913059222 7.061087114357498 0.0 9.326187502664363 2.918998264130435 0.0
173 2 2.91251991199039 14.867842477395353 0.0 -1.9767910652958676 -5.1270019527923765 0.0
174 1 10.797732784580521 7.790306151435294 0.0 -6.689348916244148 3.3653700522509795 0.0
175 2 14.253580806276009 12.683695586745044 0.0 2.3817383465694206 -4.402808848937396 0.0
176 2 8.27392631806514 3.0389774327187684 0.0 7.051874205234455 2.818672527478211 0.0
177 1 0.10845720382102127 1.0409402071628504 0.0 -0.7680537528042763 8.623496617766222 0.0
178 1 4.300771087922153 17.3298745792972 0.0 -0.9416647468005417 -10.068390086901909 0.0
179 2 11.820385551030755 12.809158001455035 0.0 7.66251308155602 -7.65723707683168 0.0
180 2 7.263821506283394 0.21698030909048938 0.0 -0.6700812254207522 11.693469042789687 0.0
181 1 4.055877233668192 2.278607516464452 0.0 6.279749396212076 -1.8668862048591237 0.0
182 2 17.036678753108664 17.30610578328007 0.0 2.9153929909156235 -7.389250284819314 0.0
183 1 8.550275958008275 19.31039443149969 0.0 9.094835819189715 -0.7839430897963301 0.0
184 1 0.6823886171025839 1.632592033639096 0.0 0.24304556815520895 -1.094837270342929 0.0
185 1 2.359082748131406 15.704982446423294 0.0 3.3131513511349757 -25.306237074791063 0.0
186 1 12.06844230724876 6.06953824923922 0.0 1.363247135501791 -9.313348406356235 0.0
187 1 13.891270007862424 16.85983469272355 0.0 -6.4067071763429935 2.7229520151069475 0.0
188 1 14.418340994819987 9.29608453118649 0.0 -3.8609602082103542 12.364756441264507 0.0
189 2 1.5753829766934224 7.874495926474846 0.0 1.4513803850957878 -6.376338916832564 0.0
190 1 1.5048250748150311 18.13293505279611 0.0 -3.9822183108481246 -4.414897148763126 0.0
191 2 19.61506800645577 16.10519175919725 0.0 -0.5113723080785884 -6.2883145737080195 0.0
192 2 18.32628235452211 4.36193841485082 0.0 -2.7396364304058745 -2.2366641809615486 0.0
193 1 5.236278629248863 12.093354304052227 0.0 7.302713860638231 12.646976255828772 0.0
194 1 17.82835032326559 1.9776369433837773 0.0 7.340893302382519 -2.5020700676724497 0.0
195 2 8.898416267576547 8.076337333030558 0.0 7.240560988471579 5.1793093927871 0.0
196 1 13.262254335334736 13.639333026369938 0.0 -6.385687479872 -7.4047583764420315 0.0
197 1 7.76041577944316 0.7958156351566186 0.0 -2.651517729454718 1.807070738995567 0.0
198 2 1.4251851954429344 1.464320669958538 0.0 -6.836183093644883 -5.611153835769222 0.0
199 2 15.298861598513147 7.781988816363999 0.0 8.232848622220903 5.746853276620468 0.0
200 1 15.631414597193592 5.053848160050307 0.0 -10.294021114265558 -4.893054046159616 0.0
201 2 2.2025470085786485 10.81071684950704 0.0 -5.628817860629288 -15.784278362434078 0.0
202 2 7.938828674317955 13.823467616955389 0.0 -4.544262638567652 0.31235401174619015 0.0
203 2 12.120495135004663 10.319028202639803 0.0 -0.11467745078223707 2.5321163383839718 0.0
204 1 7.669019887250857 17.80858617135355 0.0 -7.584515646226051 -1.4044668515239942 0.0
205 2 0.4970801180427825 2.625474000868687 0.0 4.162720536623042 0.14773655025943475 0.0
206 1 15.185476694900872 5.142716032557485 0.0 -5.57776807799724 5.081449064358039 0.0
207 1 16.680708605521808 0.8752718935417836 0.0 -4.560755339663662 -9.767581533879195 0.0
208 2 10.004125396561344 10.78596767393133 0.0 -9.513839566993795 -8.13187072474583 0.0
209 1 12.683008007341598 13.647037246006398 0.0 13.604457814803911 -7.841961838127971 0.0
210 1 4.049199227546592 2.919870973735503 0.0 4.330610532337805 18.438360686252054 0.0
211 1 7.58406814293978 8.138065248297067 0.0 1.7704042433587002 -1.6438749946185665 0.0
212 1 2.7058747109817345 2.153029253932678 0.0 1.7565720673178766 3.657988242255177 0.0
213 2 4.172901637056891 16.275412062822085 0.0 0.9816833418452084 -0.8159988215791302 0.0
214 1 14.23446847095392 7.432255443862112 0.0 7.584570602094673 -7.539967087467641 0.0
215 1 6.047545486080469 9.04368729174323 0.0 -7.095230754051873 -13.481877029048716 0.0
216 1 13.677334111421487 9.25374371473294 0.0 -0.4885184181282935 -4.401019959711716 0.0
217 1 5.097057776961679 5.34120581481155 0.0 -13.40911252642585 15.233148478649923 0.0
218 1 13.43387291648508 15.694344311241286 0.0 -7.898064831107121 -4.803474035086143 0.0
219 1 6.905495025019224 9.588090468698624 0.0 8.157687932493571 -3.6868638210870115 0.0
220 1 17.442895515814595 2.8819132161349432 0.0 -7.436289592212204 -22.22310551428106 0.0
221 2 6.500653988679758 10.25966929203429 0.0 2.48557087247104 8.70111345046213 0.0
222 2 12.131330683232086 18.57366677297727 0.0 -6.816096080659981 -1.9366851897885384 0.0
223 1 0.8461770853301706 8.665137170134187 0.0 2.254751803707576 -5.70515264060628 0.0
224 1 6.072395909407892 15.474050758727403 0.0 -2.0042298365158993 5.0114581327836465 0.0
225 1 2.51197902553772 11.765738948974692 0.0 5.491373955325387 -3.4231577653013714 0.0
226 1 4.080782897078245 6.656817681377704 0.0 -10.327206085257396 12.513441619077758 0.0
227 1 6.303474951261373 3.105900448629345 0.0 4.830890206477331 14.523054897491686 0.0
228 1 15.492297430822926 4.600878789799648 0.0 -14.702327073615589 5.9009809463037 0.0
229 2 16.99602493456291 19.05086969718384 0.0 -1.2259036017980818 -7.679145726792144 0.0
230 1 14.69189521477462 11.292589180688717 0.0 -0.49881136015647803 -1.710822463323178 0.0
231 1 19.102543335567354 10.693871198129576 0.0 -8.5658565992795 -6.8280747831856985 0.0
232 2 11.077002843178983 2.285660980987284 0.0 -2.4736302489184374 -4.544436449393432 0.0
233 2 3.08578196531982 17.261774033362762 0.0 -3.089555577193669 -1.551946391742177 0.0
234 1 9.915716845163153 19.49713644995521 0.0 -0.07934576903221766 2.2826162181406158 0.0
235 1 12.906811105340823 2.479484790372785 0.0 1.093637556850598 6.552790126947909 0.0
236 1 3.2078795648827882 2.508272943105129 0.0 2.3115675722209312 -4.012262463283155 0.0
237 2 11.530804439372233 8.372560746492137 0.0 -2.0434338797634255 -5.256809168127462 0.0
238 2 13.072064774657411 19.13315909858839 0.0 -7.30597349918774 4.169540122028734 0.0
239 1 15.19575689972917 9.485793105685875 0.0 -1.5248745865832198 9.706148270580872 0.0
240 1 0.7370417109138804 5.180725318548106 0.0 -9.425188996763316 7.769757260052772 0.0
241 1 7.252928322673776 2.957437058073857 0.0 12.540121969128815 0.8540300245660571 0.0
242 2 9.127537835416451 18.340174821393415 0.0 -5.495242105991629 -6.779575211401958 0.0
243 1 0.09166028985173302 1.6828348451840722 0.0 -2.0031030391336655 -8.540980885947782 0.0
244 2 6.2386643064605805 19.219376473898745 0.0 -0.0351763828451838 1.2033723154047098 0.0
245 2 8.250682222435053 15.190900655237359 0.0 9.786566140976067 -5.5081968417611415 0.0
246 2 9.78474549654637 8.239572358165876 0.0 10.460782633296834 1.2789064917601558 0.0
247 1 14.247048619835704 10.527581786545264 0.0 13.474146860772064 3.2573265657793646 0.0
248 2 10.790058930999445 15.749579428064425 0.0 4.119538282762086 5.477934803109214 0.0
249 2 18.45884229924249 6.9538674960636975 0.0 8.856472828677376 0.8539986932676729 0.0
250 2 16.72271851179544 5.91278171055324 0.0 3.3865576662764725 -3.8204797292448593 0.0
251 1 17.584560481031843 3.5170970404359467 0.0 4.681629842713936 1.1090804887451067 0.0
252 2 2.0520644590231365 14.604106842646528 0.0 -1.898564817130661 3.3176316694470067 0.0
253 1 0.9477038613947819 13.925161409348098 0.0 5.493793397358536 -6.839714043330228 0.0
254 1 18.723825562980988 8.333647236059392 0.0 -5.24314696728654 -8.024859002806664 0.0
255 1 11.041270957503386 13.831001510068294 0.0 -12.201691111804449 2.5832766080657117 0.0
256 2 15.159524549782676 10.321209261724146 0.0 -12.955396013993242 4.082933515348178 0.0
257 1 6.304444384013777 11.954122472731425 0.0 7.567614671387577 10.713318637984983 0.0
258 2 9.8074457872394 17.832284998615037 0.0 4.405752212663897 -1.0229858237149578 0.0
259 2 15.578306449779742 11.122852076518358 0.0 6.1284275565438175 11.707849949879247 0.0
260 2 15.811015093366523 1.6876133603372474 0.0 -0.7074481314706106 2.6726813008627017 0.0
261 2 14.279480749044305 2.8358903577313392 0.0 3.9758231985772094 4.3762397928332595 0.0
262 1 7.177756013293532 5.848669305518289 0.0 -2.6048949973703066 -12.886560292132714 0.0
263 2 11.163622329629522 19.74271948159299 0.0 -1.2859250111168972 13.217307159995242 0.0
264 2 3.0970584347210406 3.5799300629024877 0.0 0.40076501753028354 -3.3467250088330815 0.0
265 1 7.530767956911501 4.387526473929609 0.0 -0.00465365348181418 -13.10507372747169 0.0
266 2 10.163532001842992 1.8299428807429283 0.0 7.696090469815293 3.556743718947053 0.0
267 2 15.627255770302616 18.417996836241603 0.0 -0.44572556164905686 -1.0424850155192422 0.0
268 1 10.045803733385405 15.18422875992357 0.0 -7.104709746381625 3.940709108360971 0.0
269 2 9.110545860832035 12.854656536723256 0.0 4.743796628144496 1.4417389363013435 0.0
270 2 5.109530066868787 2.338266571700393 0.0 -1.8391430028505042 4.410819216677679 0.0
271 2 0.13340884482639118 13.997878105698648 0.0 0.9747305790993823 7.127075753385624 0.0
272 1 8.702122709029437 2.1700650133263673 0.0 2.667649429081872 -6.709558521289183 0.0
273 2 13.14795810892324 8.377950795459379 0.0 -4.9038948248508065 3.820713549503703 0.0
274 2 12.006696557725286 14.110582597573751 0.0 -0.46885703911674076 -1.8292838145480386 0.0
275 1 10.368964791831601 0.534664464765038 0.0 1.6701521123024206 4.947073831272561 0.0
276 1 9.551258445955382 15.537698188280322 0.0 9.969934103751907 -2.395115716468801 0.0
277 1 15.047737094329428 2.5341477209536567 0.0 -1.9131317225922848 -11.818832912080362 0.0
278 2 7.097313513163627 14.950157367727787 0.0 -3.686128182624711 2.6445861169289993 0.0
279 1 4.828469256385539 3.2106435041763737 0.0 -7.804484613101392 6.828647054732484 0.0
280 2 18.202084288879664 10.555885941881849 0.0 2.624942617602596 0.5924466544321415 0.0
281 2 2.428178123687714 19.274764402608103 0.0 2.9103348675972858 -2.57744587501982 0.0
282 1 17.997325895794653 3.067003263922515 0.0 5.692403117480233 1.7925494024553843 0.0
283 2 6.655267037339361 18.355297027292245 0.0 -9.6505325040578 4.053001419525504 0.0
284 2 8.956225695950053 3.9051554994649775 0.0 -1.483761870884066 -11.592942108266808 0.0
285 2 5.3269319758195275 0.06474820738051863 0.0 6.6617525134201205 5.393798153370294 0.0
286 2 0.9840147356807206 6.3038093686194125 0.0 -2.6921609968093767 2.5550951431076196 0.0
287 1 13.956935417837032 10.976306295533753 0.0 -8.958125144974243 -1.6523035518116624 0.0
288 1 19.438003409737746 10.22618846777 0.0 -5.183861997728697 -0.19056062639960533 0.0
289 1 11.612030459610072 17.913566335911927 0.0 -5.789347391910161 -3.214135470229555 0.0
290 1 9.802027781952026 4.74149447005593 0.0 -0.32529159931761326 -3.463615945428445 0.0
291 1 17.248820677270636 12.307977668636806 0.0 7.68784263605936 1.7498786936591382 0.0
292 2 6.677821316938229 11.196025882986035 0.0 11.37693817789801 2.534102664781665 0.0
293 1 10.327197080137708 6.246495115251469 0.0 -3.941127949859742 -8.262662288662497 0.0
294 1 19.041988170774317 5.857299737391402 0.0 9.583379674210834 -5.45877243152431 0.0
295 1 0.32459520628903304 13.18916318185186 0.0 -4.525424594379966 -25.738857737975938 0.0
296 1 11.118346454845643 17.53020649223023 0.0 6.5883579518702895 -0.7988821391839519 0.0
297 1 1.0698560541487696 4.501423675347431 0.0 -2.083466698071276 1.7726055580445415 0.0
298 1 7.92285654041463 10.281915402764023 0.0 5.279517119116313 -6.387482535710146 0.0
299 2 2.6323386553856247 7.923045955978618 0.0 -7.128696993046278 21.831618314009784 0.0
300 2 9.317327266189544 0.6069375252591112 0.0 6.0263700760090195 -1.2554575652635362 0.0
301 2 12.824594044446892 5.577896827985181 0.0 -0.9133142169056988 -0.38707576873291255 0.0
302 2 8.973883681386464 13.838614080674407 0.0 -8.896720329737805 -0.6211875103703653 0.0
303 2 4.170948887591536 0.01342240186890891 0.0 2.815456741068604 -3.2365812104284024 0.0
304 2 12.57199449777169 12.144850512710867 0.0 8.705183775477302 8.607159668987567 0.0
305 2 17.762838221112325 14.241993662284969 0.0 5.037269242138567 -2.6259470621511527 0.0
306 2 16.626324768979803 18.186627960347973 0.0 -0.3381737836042635 0.1766152496110035 0.0
307 2 19.404081534220474 4.44190075321434 0.0 3.967647617164919 -9.134685072773394 0.0
308 1 1.8485509976030448 17.062253304297897 0.0 -3.7029542851698696 -6.266881874440286 0.0
309 2 5.710943877528656 3.830846380873382 0.0 6.933484997373352 4.442010222265152 0.0
310 1 9.774862988254766 14.393651912586146 0.0 -1.038235591049806 -7.901887377280407 0.0
311 2 0.8136564070013715 10.766488675957637 0.0 14.913112578241053 0.33309708019252177 0.0
312 1 5.688737227999041 5.704916115257431 0.0 -1.527816254189974 -5.67275600882093 0.0
313 1 4.26628725808069 9.999668281986402 0.0 -17.596992404998396 -3.1279602232687 0.0
314 2 16.924774542233912 13.799881849453874 0.0 -0.03623984737031505 2.1762821892888082 0.0
315 2 16.267901515036073 6.866547689933267 0.0 -12.501276036876588 1.1280940859143471 0.0
316 1 13.698437639777358 4.835581985354243 0.0 14.07302473870609 9.043825808139331 0.0
317 2 15.767149647404088 2.881652099189169 0.0 0.9473737045561927 6.938725567260625 0.0
318 2 5.393078333379521 18.928191837974936 0.0 -3.658284683863766 -5.67027956169751 0.0
319 1 1.3156321041298047 15.73701401946023 0.0 -2.0781696205971074 8.01222193259958 0.0
320 2 5.600237571975815 14.582244416847777 0.0 -9.348340990476727 15.243115943938722 0.0
321 1 0.6627162593900909 14.971510536006711 0.0 -3.4451536171709947 14.127837116641993 0.0
322 1 10.865954696100031 14.33319526194559 0.0 -1.076238884060681 -5.640485613189339 0.0
323 1 3.405794707953909 6.209308854866229 0.0 10.114147951211303 -9.128928962258504 0.0
324 2 12.332143484765798 3.492180757174203 0.0 0.8720118521210622 -0.6516838304348045 0.0
325 1 10.53086391953065 17.20707992798175 0.0 7.455187148510264 9.026741189994128 0.0
326 1 9.387541800411014 1.9369410956075885 0.0 -7.5353512750383675 -1.032738285255885 0.0
327 2 17.58942851461347 13.162371844154386 0.0 5.145449772129287 -3.5079595775395758 0.0
328 1 19.378820044754846 1.8408294103736078 0.0 5.891061073577353 6.717232562983389 0.0
329 1 5.344338248985132 13.66414971251621 0.0 2.233831571708126 8.487445483945761 0.0
330 2 2.1369129711432366 12.657710196715659 0.0 6.346341954362938 0.9856718043656786 0.0
331 2 19.103064098624035 15.010255810614177 0.0 -3.27494461211347 9.665027295450846 0.0
332 2 3.3880433712466433 0.4875013855214531 0.0 -7.565582057740231 -15.276256716550423 0.0
333 1 1.7261476795608106 18.830558362063734 0.0 8.198072287155895 0.4439940102610963 0.0
334 1 17.131784195789344 1.6621191174862326 0.0 9.864119057305535 3.2165182836370305 0.0
335 1 6.08104191334824 6.843997542730804 0.0 -0.38087117712908336 -22.987920145154277 0.0
336 1 4.868394195792867 13.470349327197985 0.0 -2.8880850161233584 -1.9607120759130958 0.0
337 2 4.170268538420518 4.020435967135706 0.0 7.79080401012316 0.4580646244072672 0.0