ITEM: TIMESTEP
0
ITEM: NUMBER OF ATOMS
400
ITEM: BOX BOUNDS xy xz yz pp pp pp
0.0 19.7609 0.0
0.0 19.7609 0.0
0.0 10.0 0.0
ITEM: ATOMS id type x y z vx vy vz
1 1 8.904379230693907 8.132232542188063 0.0 -9.977177977907177 12.12172254452457 0.0
2 2 2.059276832594294 16.036057885304587 0.0 -3.7692957307689388 6.101834288192771 0.0
3 1 2.037751047237251 18.100039652048938 0.0 7.555678291840582 -6.581830673326045 0.0
4 1 1.5713063972755124 2.804358329742604 0.0 1.4477739460732402 4.5043960653426245 0.0
5 1 0.5215232482892643 10.195571977384933 0.0 0.6784388818006736 -18.665715367741704 0.0
6 2 12.983193377945144 7.395318236117961 0.0 -8.903443594568099 2.741774726379235 0.0
7 2 3.3073191313604395 19.647984914482066 0.0 -4.743985041841165 0.9295521117049109 0.0
8 1 15.819194808339917 8.764780339208004 0.0 -8.556521947389202 18.278719660797396 0.0
9 2 4.72825523387141 2.5346749324175337 0.0 7.499751596164909 -3.4213375795028695 0.0
10 1 7.962274751264453 2.696070760128832 0.0 -7.995979354262469 -8.232841721399879 0.0
11 2 0.9066521061184266 1.4125490838961559 0.0 -5.749951521531216 -0.29810656130384955 0.0
12 1 12.744316438006976 11.536563762538124 0.0 -4.0386115524540935 8.941489733188016 0.0
13 2 12.418765166329575 2.1329294236597716 0.0 2.6929603222233007 -1.603481834880903 0.0
14 2 6.7103604404189365 0.5037255981770936 0.0 4.906201868233667 -3.0324548498984507 0.0
15 2 4.6619235848696565 11.750834682583093 0.0 -17.340759376683426 7.793086817521091 0.0
16 1 7.501939809990311 1.3219355812939333 0.0 -15.608174476814622 -0.25148368829205914 0.0
17 1 11.291823864380138 9.424701094452969 0.0 17.85572172548588 -1.865352293378607 0.0
18 2 0.6863142578513558 11.046289588471948 0.0 -6.9271109642433615 12.756186791748382 0.0
19 1 0.22527350599091497 2.1825355450755 0.0 5.056847014868587 -0.7261563948613718 0.0
20 1 6.288005739779231 1.4379722795902725 0.0 -2.0796344053018996 -8.427230215346402 0.0
21 1 19.626887681378555 13.058223584289788 0.0 -10.221919897826195 -5.026912187886063 0.0
22 2 10.645763409334782 6.452553506202472 0.0 -4.649106150189872 5.053444823025972 0.0
23 1 10.508560566107972 9.012635968788437 0.0 -4.496262082253462 -16.50756162268252 0.0
24 1 6.956960588242106 4.09165944680556 0.0 -6.216561224305657 8.217550745057489 0.0
25 1 1.584164250215936 7.464310228993874 0.0 3.4011629339471043 9.470145601180455 0.0
26 1 0.9918158433864698 8.243415360255863 0.0 6.254968900538357 1.5456026293532632 0.0
27 1 13.19646703689067 10.421405004654716 0.0 2.8586283278828195 15.434100342160642 0.0
28 1 10.513166563987525 2.1918269676050888 0.0 -16.078927177162296 -8.655794379680476 0.0
29 2 10.000409172354486 18.206441791601293 0.0 -14.609732504216714 -4.579820932620504 0.0
30 1 3.462971740912093 16.44310472012086 0.0 -18.30305997578556 -8.701622338638543 0.0
31 1 13.235333094639333 3.8456730045314007 0.0 -0.7356807890915761 -12.042358063340881 0.0
32 2 2.5695053031370945 18.930280978359605 0.0 2.0109764285422878 16.905976024030213 0.0
33 1 13.548721822986364 2.6713166628626803 0.0 3.3947165332841056 6.8939473276993395 0.0
34 1 14.018601985898714 6.194819718794876 0.0 6.423877436646149 10.389369041603148 0.0
35 1 15.363802896746366 10.469944979466009 0.0 -8.545924920680818 -7.972036298229679 0.0
36 2 11.647456428538325 17.699446863202052 0.0 -0.9841304247878815 -1.2181804856279423 0.0
37 1 16.172548335838847 7.861317902524124 0.0 5.457897290946166 7.452204501153059 0.0
38 2 8.504666987686832 0.3523597566850314 0.0 -1.7103389965676865 -2.975999134014043 0.0
39 2 15.050166512131906 4.57129905143841 0.0 3.8804759527539217 4.610186551631051 0.0
40 1 15.707831989302386 8.176521858187431 0.0 -28.65690448504827 2.831658611801589 0.0
41 2 4.7089179875776095 14.188331943721629 0.0 -2.289411147231337 6.4487995283581165 0.0
42 1 2.050903431263338 13.358464682401356 0.0 -3.743704899846531 5.987065950648348 0.0
43 1 12.12197232459076 18.576004107799573 0.0 -21.13843017795669 -8.003256412516812 0.0
44 2 2.6763527921647214 2.303870944021582 0.0 5.674164054119287 4.527189132867467 0.0
45 1 1.9803798830743091 5.837159120432204 0.0 -10.140729379933422 0.7871669968249151 0.0
46 1 6.09339743880898 6.538462419966782 0.0 9.719498145932095 4.398728690210742 0.0
47 2 8.863026817177538 7.271496122303741 0.0 -5.026376017924852 -4.702646268256225 0.0
48 2 16.3487830693692 15.544733743422572 0.0 -1.2091551062329138 7.3125519704760675 0.0
49 1 9.92821416153344 1.227612186494795 0.0 -4.488509351790885 -2.0613141814954252 0.0
50 2 10.361495790998765 5.166171647771016 0.0 0.20358767391674484 -2.667404677690368 0.0
51 1 3.2348049867421333 11.790807154005241 0.0 7.917247975271829 1.5959132700660013 0.0
52 2 13.92662652315408 4.703602973970809 0.0 8.693961209787656 5.525756217782304 0.0
53 2 0.6867122725071853 2.813116307895019 0.0 -8.190327790469132 5.018072285374261 0.0
54 1 3.5303254026186908 10.354226929685387 0.0 -7.533087912710072 -0.8608121141514499 0.0
55 1 19.02969686455218 4.562111629304088 0.0 4.323261949922109 1.0293514157273977 0.0
56 1 6.551397183761322 14.00684917056876 0.0 0.4897837916641567 -9.465843548090694 0.0
57 1 6.131903688242909 7.123963903062105 0.0 -4.227205514155549 8.709855228891984 0.0
58 2 8.944076575541 2.8418464984306584 0.0 -6.303934780746863 -1.928865084985847 0.0
59 2 0.18687114273005012 0.25811832166466014 0.0 -0.8161665089501134 6.723157204620466 0.0
60 1 3.029215200295105 12.763727463560471 0.0 8.59682455511077 -5.931790228831743 0.0
61 2 6.704718578502366 19.384372805952307 0.0 3.030471553905961 3.357462802834607 0.0
62 1 3.488988972921575 9.721583174483198 0.0 3.1317576860817335 3.6254143606195797 0.0
63 1 19.154366227714476 17.14513541072481 0.0 3.6840701942595366 3.560129008365651 0.0
64 2 14.0517410175291 14.873893881506547 0.0 10.352634840893572 0.2727084895366584 0.0
65 1 1.135684719244613 9.411561079908008 0.0 4.091728406316962 1.6921975808915233 0.0
66 2 3.871971552095864 12.130504624164384 0.0 -18.562358694660762 -0.11274537069249553 0.0
67 1 16.5350694760413 12.593648700359143 0.0 6.850596251614988 4.5887481384952435 0.0
68 2 7.0420169688788405 18.424920728684153 0.0 -4.1434676587839805 0.13471745542065366 0.0
69 2 11.984407309406185 8.760165399362986 0.0 -12.139198162679563 -14.969087880275975 0.0
70 1 0.6516599060538475 16.465086801137577 0.0 9.801721082606708 -0.49631645748631414 0.0
71 1 19.020686449647165 9.867647196218057 0.0 -0.5885699004345443 8.404679696007406 0.0
72 1 1.8415926534360822 3.55200319098526 0.0 6.970745232140527 6.137187277078528 0.0
73 1 0.08987649273205603 6.8086140092309595 0.0 6.360315627584911 0.6872071511689902 0.0
74 1 18.102812910021083 4.475376086533894 0.0 -0.13429732752120235 -2.5456556747266106 0.0
75 2 16.88676371593526 7.197829718492932 0.0 -12.20545462925606 -3.7400162990586616 0.0
76 1 15.762843513615035 6.297601206916847 0.0 14.520756428685708 -21.41717678147621 0.0
77 1 6.747029513331348 2.5187325643361045 0.0 -2.8678591027845903 4.769692544237996 0.0
78 2 17.841917616795318 0.4568378330869877 0.0 -6.550485498183486 -10.813274788959506 0.0
79 1 15.95534509742431 10.752907114690975 0.0 -0.21105356742643416 -19.425957634660115 0.0
80 2 14.743557208661146 11.714210129127945 0.0 6.631603693276052 -2.37513674050919 0.0
81 1 1.778004903017727 5.18942028236514 0.0 9.846415312025481 17.553936466038326 0.0
82 2 4.675666693085513 0.16935218046188433 0.0 0.5689977408925707 4.523661017329571 0.0
83 1 9.700468852238735 0.23186210909276228 0.0 3.9081461622803775 0.07633425076641713 0.0
84 2 12.206234395399857 14.076901478626269 0.0 13.770176335452614 5.222886574534208 0.0
85 1 9.758234246129037 9.162768544451893 0.0 0.9715836093274673 3.5918542623278906 0.0
86 1 5.6859352862591335 13.950545923567262 0.0 20.919843520109005 2.9769016802405845 0.0
87 1 10.903309822106825 17.367917508366403 0.0 7.238802881415393 7.06029971400543 0.0
88 2 1.8852497869987586 16.930412669327147 0.0 -10.567258176249554 0.5810251387496107 0.0
89 1 14.98007545255646 16.42590236656914 0.0 3.601432950692125 -4.526403911500879 0.0
90 2 14.06200303850497 17.64746099530601 0.0 -5.280128596998573 -0.4140125660731368 0.0
91 2 10.481089382110577 9.729826979304688 0.0 -7.135884586854236 -4.931109783320983 0.0
92 1 1.0797474627655486 7.681554665192655 0.0 1.114516180257932 -5.270868043305171 0.0
93 1 10.123360144512565 0.5669018932651823 0.0 8.493090161991171 12.646726667427252 0.0
94 1 19.34574299680542 8.005135891577696 0.0 1.4781892683612363 -15.439015700005863 0.0
95 2 17.184148243268375 11.143398744314466 0.0 -1.6621917046507226 5.884279561873302 0.0
96 2 17.431759831364523 1.3005454478952747 0.0 -3.055066359784501 4.810170980502011 0.0
97 1 7.11524810519889 1.8241268450132375 0.0 8.89076442274 -3.647604027099033 0.0
98 2 1.7265707154494288 19.21614024553059 0.0 16.444929556104498 6.536815580415234 0.0
99 1 12.644762993213398 3.792798182966625 0.0 -12.546978757451628 -3.2701968862525703 0.0
100 1 13.271452902918456 5.375636843478913 0.0 -5.2694973062552535 1.443678317663525 0.0
101 1 14.01351392186876 16.00553445148851 0.0 6.514592044466501 9.021270472957553 0.0
102 1 10.156694533703028 19.425109119745567 0.0 5.945442793598365 -4.973346907119161 0.0
103 1 8.125069630102397 10.63284706148433 0.0 -1.3216822023727444 -2.2669113585322838 0.0
104 2 7.146530821479987 13.024666108436485 0.0 10.124729214506006 -0.00648564087274034 0.0
105 1 8.783518682179887 16.506569662249305 0.0 -0.7438124182779049 -5.293904109175018 0.0
106 1 9.726841208321183 18.9335915092367 0.0 -24.75452967982459 -1.679564553599623 0.0
107 1 3.399172218915263 5.195581965550911 0.0 -1.7275454791428333 -4.775767279478795 0.0
108 2 14.0992382826289 12.429456434610923 0.0 12.072751464657644 -3.450879351687507 0.0
109 1 10.157009604436066 7.210652827436089 0.0 0.16304967590699324 -12.350772165417265 0.0
110 2 9.595679498855498 8.273210462845977 0.0 8.345527624456139 4.086231352672818 0.0
111 1 3.397461529113405 6.8759643400391806 0.0 -3.3345598902017914 -2.7943315682813212 0.0
112 1 13.573595998392978 1.3913737602254368 0.0 7.168204125716033 1.3580731785211102 0.0
113 1 3.4394595548733857 1.947110316425091 0.0 -5.260479127502323 4.9573055146040765 0.0
114 1 12.205311711318396 4.10612214431457 0.0 -16.618759213776205 0.9589857022764032 0.0
115 1 14.994031817089665 3.2170011047866978 0.0 3.329419349285889 2.1261179423549255 0.0
116 2 7.965581332222779 17.640096954558093 0.0 4.3583290011531 8.079150897416518 0.0
117 2 9.4944009315999 10.675759962706284 0.0 -1.9827247473541727 -2.4371306834133155 0.0
118 1 3.515112944279573 7.7532112973845155 0.0 -13.134673434056412 -3.0768211145231477 0.0
119 1 16.087133717477826 19.57976663953882 0.0 0.3653443995388035 -7.125241408537361 0.0
120 2 9.230002617940844 17.70802648118798 0.0 5.310736544644015 8.191804157667411 0.0
121 2 6.814271493528232 8.004785053069448 0.0 -3.1309606272245487 4.72729924712666 0.0
122 1 12.979436918658376 6.444279020251496 0.0 -12.443208385109893 14.18180405374431 0.0
123 2 8.880534430946929 11.41842811070107 0.0 3.313493400956541 3.3374048331722475 0.0
124 2 2.444616832497705 7.8801135423440405 0.0 -1.6336440853474552 12.511487261438095 0.0
125 2 15.068033413077426 14.250319561079051 0.0 -0.17709287754190206 9.448308577477194 0.0
126 2 1.2744867549579684 6.780398213962381 0.0 -6.42900146132609 11.608503466904876 0.0
127 2 17.210400215018126 14.65569163774918 0.0 8.266915381412616 -12.458877085616246 0.0
128 2 5.72508201006318 8.48220623918752 0.0 3.845211764882815 2.7819455215365094 0.0
129 2 4.932035528425753 17.838968865058693 0.0 4.440578904205315 4.268629373608084 0.0
130 1 12.647526428003246 13.040758140978678 0.0 -2.508641936701731 -12.774572227221283 0.0
131 1 10.38401477247925 2.9602137593715505 0.0 7.662030658964864 3.403233922637066 0.0
132 1 8.004343578151358 6.966815576780459 0.0 12.605367264276326 22.583910140922185 0.0
133 2 19.37537883389518 3.7470569773473548 0.0 0.7391296012667921 -10.451541932143181 0.0
134 2 7.791894816686959 12.09838625490311 0.0 3.4678713582736296 -3.3787618108937947 0.0
135 2 18.57521341454456 19.60695685014017 0.0 4.388757711719572 0.5826153406222454 0.0
136 1 8.511472867027663 12.872662105363677 0.0 -0.5688183280369752 -3.191792711680828 0.0
137 2 1.5362890753264076 0.8984296571742976 0.0 -7.539832397101859 -5.103094718735434 0.0
138 1 18.572512708734493 17.14754328784985 0.0 0.9395782252626983 4.4482616373387405 0.0
139 1 7.697882194574022 2.218127876431192 0.0 -9.265280852923969 -3.6868925518597484 0.0
140 2 10.22167123650043 14.074043786285449 0.0 2.0637107784372373 -3.0780961492609498 0.0
141 2 5.452695825499998 5.642595327849373 0.0 2.8680021970183334 2.249999100951255 0.0
142 2 9.090164266928076 9.67481493410789 0.0 0.7323338815048271 -0.6154156794679109 0.0
143 1 6.45504972979551 10.51530604886127 0.0 -5.816319782996211 -1.2384696512876876 0.0
144 1 14.916828241303714 15.885326668493478 0.0 1.2492999439622876 -16.83849582398953 0.0
145 1 19.676051838929556 10.672617188222516 0.0 -0.07826271933124487 -7.1710821109500476 0.0
146 2 3.2410995161473153 13.939766260201367 0.0 0.5373407324074574 -4.702074349340378 0.0
147 2 18.293082398759182 11.615285786501529 0.0 -0.6975915916812975 8.699220546940202 0.0
148 2 8.933693912495634 1.6433453301164571 0.0 1.0416014253479122 5.444458242444223 0.0
149 2 10.76250756187537 10.759701638891299 0.0 -2.8472278546612446 -0.9644757831001297 0.0
150 2 16.571647884097974 2.0220360624269147 0.0 -3.7377570054038376 -5.046165811995706 0.0
151 2 13.274448190476559 19.652776555343696 0.0 -0.5942479302880666 -4.737793995621891 0.0
152 1 9.777792999449922 1.9964862392341043 0.0 -2.7407631049504517 -2.4277074111300685 0.0
153 2 8.505062852752099 6.126922500235483 0.0 8.564466493909647 3.1564009152712353 0.0
154 2 9.606434336860662 15.488717040908792 0.0 1.2266736148064357 -2.3756882491492464 0.0
155 1 8.138594987100936 7.3852451141854605 0.0 -2.0772383999603425 -4.890775240361 0.0
156 1 18.967624922784506 10.435570179861282 0.0 -6.404541055138093 -7.26859669212432 0.0
157 2 9.567570849803078 4.3577664141963615 0.0 -9.307537009436695 6.752158393320909 0.0
158 2 17.298050710271273 17.642023554601106 0.0 -0.25262256941198463 9.802377321946553 0.0
159 1 1.6807648400593391 14.442626598275114 0.0 -15.14592160750958 -3.6675320320445746 0.0
160 1 3.7413079520619035 3.07141854652195 0.0 3.8740943319899763 -4.5501066729119914 0.0
161 2 16.1686182455705 14.434096521648865 0.0 -0.39180792783464224 3.2341005978337667 0.0
162 1 2.0980742293465573 4.009012416285833 0.0 -14.972186218922834 7.858698471326131 0.0
163 2 4.956445454159528 16.33991313102768 0.0 6.720145650243932 -0.3059084910156039 0.0
164 1 14.216850413281573 16.6650733837621 0.0 11.896680640992718 7.240402019415656 0.0
165 2 2.7610157188626347 5.538922510658334 0.0 -11.627940300285251 -7.205093399573307 0.0
166 1 12.242387769503186 5.796738586129068 0.0 9.679825480904732 -26.665168358285467 0.0
167 2 5.01115887052105 18.821140138051202 0.0 -4.404241427035894 0.48187758750546383 0.0
168 1 18.61126549250343 12.464829512706697 0.0 -5.778093856764319 -5.944911242594978 0.0
169 1 15.777096130917629 7.416869053943774 0.0 24.261770147005226 -11.499475256996998 0.0
170 1 18.91843698566296 7.615189702703014 0.0 -11.536118067894634 2.7139030198059406 0.0
171 1 12.337501958730204 12.429295829331544 0.0 -5.936190418149058 4.929948937036688 0.0
172 1 6.227888162854062 15.38703732886202 0.0 9.317082395288558 0.9337760743320291 0.0
173 2 7.572182946008189 0.33695313484817 0.0 -3.5924710041994787 -7.509121801513478 0.0
174 1 15.066376154778103 2.746358985533899 0.0 2.7223561680520105 10.004919314247744 0.0
175 2 18.548056756868444 13.373250152056704 0.0 -8.728980730338673 0.4270229270339975 0.0
176 2 17.297733858995514 15.541140623034332 0.0 8.473164205058842 8.892635912375507 0.0
177 1 1.2461485416021272 14.824644126303811 0.0 2.2487468698534316 11.781533856080904 0.0
178 1 19.557990641245937 7.31050646096759 0.0 11.613426200107163 1.6639206984753687 0.0
179 2 4.150139379747002 15.860406528048664 0.0 -4.294981899398231 -6.875287935655075 0.0
180 2 1.9029634146577117 9.440733601033564 0.0 -7.229236474127485 -7.558554501435218 0.0
181 1 6.92492430288658 14.483882939483117 0.0 15.435570583750447 -18.319188213835442 0.0
182 2 12.120518474879294 7.372003269862892 0.0 -1.46430602683096 1.9924334536914623 0.0
183 1 12.099073268490487 9.610694740146709 0.0 -7.353774812401226 -18.59781076446737 0.0
184 1 0.5111722606064034 4.06641364859684 0.0 -7.652090881312498 6.207998254848671 0.0
185 1 12.978837860353886 4.260698184584585 0.0 -0.24112694383099287 -1.429097858688452 0.0
186 1 15.125413902112548 7.764137951584449 0.0 -8.516660176901107 1.656276184117485 0.0
187 1 7.270265703973178 13.848839542125141 0.0 4.142585315379892 -10.261192507244376 0.0
188 1 3.8431582366229393 4.087690027680547 0.0 -13.869625104186488 3.4035380349284434 0.0
189 2 16.048587293382244 11.805096892160279 0.0 0.12902327067671357 6.716318447351752 0.0
190 1 15.947370336864246 6.772903384504594 0.0 -9.737463385540208 1.606303136805253 0.0
191 2 6.146036969398085 3.2166239053939014 0.0 -1.0015052990899806 -8.594817729425241 0.0
192 2 1.144707587080371 13.509401719734987 0.0 -2.0288362705265603 3.1182122566674764 0.0
193 1 15.49524129186527 17.3623216074914 0.0 -1.9347319096180884 -2.065039237134836 0.0
194 1 5.301427066971701 4.761270963103906 0.0 16.511448376243646 11.580095688460652 0.0
195 2 18.91564447094946 6.435083208209175 0.0 0.3558008826427969 8.943158806025707 0.0
196 1 15.175508008143094 6.787536169493588 0.0 1.1994176074182117 -1.279619686747576 0.0
197 1 19.33320556692563 12.421425328395305 0.0 -3.2721699144934666 -12.676677832154878 0.0
198 2 6.38335456241205 4.984265456964167 0.0 1.1856688873849097 -6.613125574640011 0.0
199 2 9.414240882373532 14.287012179583876 0.0 3.764418026279999 2.475179865211456 0.0
200 1 2.273562946197352 14.48330195634093 0.0 -4.904963546163338 -3.382609714139507 0.0
201 2 0.3794016710622008 14.159204051596262 0.0 7.701686626950804 -17.6936992544276 0.0
202 2 14.688146611841299 8.713932827919153 0.0 2.1007148890262357 -1.9474069972471655 0.0
203 2 5.277894001744542 1.391296647141655 0.0 -8.26033223989626 -13.149354934608086 0.0
204 1 17.707567958132422 5.251584337380642 0.0 -2.29387217148947 -16.549765705114687 0.0
205 2 5.693299580444427 2.2209732057480167 0.0 4.594468289250774 5.35887951259602 0.0
206 1 15.644593302152048 5.784785044403772 0.0 0.26040974468306677 13.628344809409965 0.0
207 1 3.739976077507005 0.6591715147540321 0.0 8.3465533050106 8.321537643125923 0.0
208 2 14.140210608388829 10.941840806603752 0.0 -11.71461329545443 -0.20990605135180435 0.0
209 1 3.351059319395514 6.321922903869289 0.0 9.911675001998097 2.574608648761486 0.0
210 1 14.733455338199425 5.401639509230668 0.0 -6.765296800067826 6.676207630953833 0.0
211 1 9.801221931557992 2.8875525403440814 0.0 9.52381378994406 -0.16903501831408868 0.0
212 1 2.339242353552081 13.88496479982254 0.0 12.710798388396082 -2.192102912051777 0.0
213 2 9.563884083484544 5.7263682884777225 0.0 2.644861939202234 -2.5709603646015697 0.0
214 1 2.6575755618826915 16.501471711109236 0.0 -5.078724488525699 -0.7809891561650291 0.0
215 1 14.60325710266001 7.852521245191763 0.0 11.680689288961812 10.039951759762465 0.0
216 1 5.872891546844814 17.19783675394859 0.0 17.661760053596865 3.606892702464051 0.0
217 1 14.424702217313731 18.95871084732647 0.0 -12.836635294669934 6.726147431818632 0.0
218 1 3.088210820654507 4.638654731157155 0.0 -9.773611141535124 -8.963953012960033 0.0
219 1 2.17611095944389 3.1283637773668493 0.0 -0.9160722956809577 8.133822247039975 0.0
220 1 4.056536786616909 1.7620720464979571 0.0 -4.472215757896843 -3.039583672481577 0.0
221 2 12.967424652653708 15.936694360927685 0.0 -5.208359041286106 -2.223842384912184 0.0
222 2 5.8569583628743285 9.825843092355656 0.0 -6.30779027207818 2.0497278886880035 0.0
223 1 13.066012551991914 2.520688853726552 0.0 -0.4341406060444983 -20.83326108033736 0.0
224 1 12.934821988241145 10.862103965618932 0.0 1.8836004376460496 3.5908276560834986 0.0
225 1 18.383567517581945 5.050261778157933 0.0 -17.27516754900367 3.6173152458063518 0.0
226 1 0.6583121623629001 9.730179513901652 0.0 -0.32185509753028013 10.49777520504987 0.0
227 1 10.746248923964028 8.151910514383426 0.0 16.36248289373216 0.1909330657247073 0.0
228 1 15.127556491045073 6.079573183877863 0.0 4.90190248282818 -9.242261215400418 0.0
229 2 10.571551638346266 12.99363415126951 0.0 0.6678907960713839 -5.829436511212035 0.0
230 1 12.916270024918097 3.3500782359972177 0.0 2.0435243209079905 6.3415694125589575 0.0
231 1 12.814943939401102 9.857155280539368 0.0 -7.35152510020126 -6.95796068852722 0.0
232 2 17.73478486965781 19.185683599447906 0.0 1.7343521539539553 3.5245317656638435 0.0
233 2 15.032337009071442 15.048551847150597 0.0 -3.6788415174419167 -0.9641709889862271 0.0
234 1 5.998534629203926 18.73081973985405 0.0 1.6352379688266416 -10.91913312251062 0.0
235 1 19.338413449576105 11.484953260820525 0.0 -11.576088888077342 6.0510852772279 0.0
236 1 17.372415917230065 4.840598582802912 0.0 1.4126095109149714 4.023598005310466 0.0
237 2 13.072986144076234 17.45401234634784 0.0 8.46727937306391 -13.323767034652649 0.0
238 2 15.974595333930019 2.891418816409274 0.0 15.182675916514759 1.6927105286077355 0.0
239 1 7.564498244799003 10.811326219342673 0.0 -5.590772018270406 -2.344266438939447 0.0
240 1 9.774248751021824 12.54060351043906 0.0 -8.615133695899145 -1.256275640607034 0.0
241 1 16.559582000848003 13.060597204054702 0.0 18.6538988564956 -13.991025626225184 0.0
242 2 18.811295893408097 0.7680006618133863 0.0 3.2246622286360918 -2.7353857448134935 0.0
243 1 19.563846553857847 15.124845766949619 0.0 0.8209713879220698 -6.685884031742599 0.0
244 2 0.43552105147711423 18.954924378305538 0.0 2.314290105359122 5.1683095729027455 0.0
245 2 16.69954978184945 5.543191864719045 0.0 5.378726187687496 -6.124528622648336 0.0
246 2 18.968492633861633 1.7025808878346496 0.0 -4.779789618696494 -0.3710306492860039 0.0
247 1 2.627331446281229 1.2929244231467536 0.0 8.837652715368684 -1.9099027704102383 0.0
248 2 13.658498908009953 13.087707608168927 0.0 3.5896693579131256 -5.308829923130336 0.0
249 2 7.439659517661399 5.906035671155917 0.0 -4.131686847641884 1.7008748719822087 0.0
250 2 7.0477296229787285 15.613543814244851 0.0 -5.526966652784894 -8.034948515684924 0.0
251 1 11.184757710975534 7.387276624196012 0.0 -13.762463293805451 -5.800241222347887 0.0
252 2 18.043485211501327 9.579246095452042 0.0 4.86610206324551 0.3692097257274383 0.0
253 1 13.934327525251465 5.658791830162601 0.0 -7.817348871375207 -2.2351144214169594 0.0
254 1 0.5661215650489716 8.948655081976527 0.0 7.01280263709955 7.070452993272398 0.0
255 1 12.152240841964675 11.019979586520517 0.0 3.907664705933469 9.40299002815645 0.0
256 2 18.930696836279395 16.004623921224834 0.0 -2.4289860059337784 1.0800014741091195 0.0
257 1 14.128871051917326 1.340604940030269 0.0 18.71723888287838 3.8595186924670792 0.0
258 2 2.259752960255034 0.37438738388862275 0.0 0.34092601319269444 -7.516212396914602 0.0
259 2 15.857022523103003 5.017509380228578 0.0 1.928232296569844 3.198717257982308 0.0
260 2 12.658408164554338 15.106007667272559 0.0 -2.4696442414624005 -7.2949933581079565 0.0
261 2 4.923353274747899 10.312426044736814 0.0 -2.793015748310657 11.924069189200887 0.0
262 1 14.728734635206576 2.165038707869664 0.0 13.846026807674543 4.005844146072647 0.0
263 2 14.620926038424086 13.353665571346697 0.0 4.205426050769629 2.680373492905013 0.0
264 2 1.1410187552062203 18.195592860263762 0.0 1.0622852836667596 -2.20822031984049 0.0
265 1 11.392830595090567 2.248653190260048 0.0 15.703211783482832 7.330404474969543 0.0
266 2 17.91060170696648 7.211638526446528 0.0 3.538410042535126 7.144791671764213 0.0
267 2 8.494439008902575 18.50908088481025 0.0 2.7646815309747113 -1.0951535184429555 0.0
268 1 19.137788689512917 17.820725208362454 0.0 -6.371090545639641 3.3304487123679127 0.0
269 2 16.58922415109177 4.167965215981998 0.0 3.2164428468541795 4.523408971766837 0.0
270 2 11.595641590718916 13.516340771179701 0.0 -2.3244483527230746 -4.640294524454875 0.0
271 2 18.1032286284363 14.112972865364618 0.0 4.903348287685113 -2.737796245955804 0.0
272 1 2.9656355841369435 3.452304505778719 0.0 0.4866087095371197 1.6438716773460733 0.0
273 2 12.020651140178382 16.925331221099352 0.0 5.2526486154185426 7.559847592040434 0.0
274 2 4.146936519832075 19.15698451593696 0.0 -6.631488572140849 3.3111371192173564 0.0
275 1 5.735513299501229 14.587748374243544 0.0 7.58122736021221 -6.764213979000352 0.0
276 1 5.563012749423 15.288883525865616 0.0 -5.441378150535199 -2.653867280075122 0.0
277 1 2.718006357030672 9.778865062775232 0.0 0.859007306575521 -16.450941182914693 0.0
278 2 6.500303561992536 16.538490415841427 0.0 5.802678433789653 -2.8313318681646047 0.0
279 1 2.3932512395915566 13.027254425919743 0.0 -14.225654434255247 -9.006651784387149 0.0
280 2 8.062420559692947 8.698741574570082 0.0 4.056047731521632 -5.056595593876784 0.0
281 2 2.378307412522615 11.008751256286144 0.0 1.0449180271145402 3.63042417927541 0.0
282 1 7.465562446105532 4.872446330918759 0.0 -6.432156402414449 -1.2146361258504936 0.0
283 2 18.281153894460935 3.3736843776452234 0.0 10.418968764643996 -6.6235010932871 0.0
284 2 13.149646221729379 14.246331967646011 0.0 -0.6597482885987694 -8.261277118518569 0.0
285 2 10.562736284112097 3.830693630202861 0.0 8.972825459411284 0.4170116366929481 0.0
286 2 1.4987924833886108 10.462963908301006 0.0 16.313994121774854 -2.696670365397515 0.0
287 1 11.602727312126525 5.071901051851436 0.0 14.883539078238448 -9.830447108354221 0.0
288 1 13.349370464860797 6.1216412450193705 0.0 8.407478736790747 4.919725937340585 0.0
289 1 19.601544713110428 2.830933578413304 0.0 7.872638757162925 -4.755095306580645 0.0
290 1 2.5871097030139656 12.15316674017178 0.0 -2.5719479472674065 -7.472307159213392 0.0
291 1 14.476899972074124 6.507357126090973 0.0 -1.4385625223548044 -11.767352303176054 0.0
292 2 17.14888639940314 3.2440247866795358 0.0 -1.5893782062928743 -1.0692532324220043 0.0
293 1 3.579202966935387 18.610330213164623 0.0 -5.090637419061929 -2.6032574687529766 0.0
294 1 16.30527761041671 8.493153140857888 0.0 12.3479391314721 7.1059594864452125 0.0
295 1 1.3687929272382398 11.56263846502837 0.0 5.136366507625419 7.873990965056578 0.0
296 1 8.826518016400072 10.46826875052815 0.0 4.26751931458454 0.9186144406350357 0.0
297 1 6.228719227090851 5.8639172494065175 0.0 15.466218300750267 12.74751348962386 0.0
298 1 9.519319793460475 13.140267254065055 0.0 -3.6851792969239967 -3.62512838093125 0.0
299 2 14.91992834783389 18.19969835536417 0.0 -4.976402282067641 -1.9486023224080062 0.0
300 2 18.072096554113127 15.018664659604656 0.0 2.022058295068577 5.052172435842293 0.0
301 2 5.167677728056169 13.192439700149235 0.0 2.1065659816701814 -1.8933648642475596 0.0
302 2 8.612436767643871 14.820182480190528 0.0 -1.0201605443966932 3.4907512884896175 0.0
303 2 14.38369265064751 0.33152711566823206 0.0 -5.695922132994624 -5.184175318239861 0.0
304 2 3.715700646769393 8.683464366075519 0.0 10.883751562732943 -2.3541478834964806 0.0
305 2 11.580974515544483 6.646165073306993 0.0 -0.6731502556371055 5.021859030518014 0.0
306 2 5.734997389697788 12.415612516859778 0.0 1.6050264516937873 5.082730983662766 0.0
307 2 13.338157538445685 8.402440256105004 0.0 6.652826468821695 2.6803884477705306 0.0
308 1 12.452459460326718 0.2035369723928125 0.0 5.684909314278067 -4.677177765059979 0.0
309 2 16.221199231547054 16.94553136922527 0.0 -11.375115661599224 -8.828106678827307 0.0
310 1 17.183572070620045 12.858291726732018 0.0 0.96678174546481 -4.511359047861106 0.0
311 2 6.6631031391595625 11.804954996073405 0.0 -5.303118786282474 8.59162104407854 0.0
312 1 2.091952271814441 6.902890983309914 0.0 -3.2790096202838472 -12.780059700066007 0.0
313 1 17.889317347666072 6.286610286974156 0.0 -8.008941891946153 -3.8238059012388494 0.0
314 2 11.1771373229091 1.4449438908908876 0.0 -0.9540050927341897 -17.533068426808338 0.0
315 2 2.9103374098638617 17.715529169438454 0.0 -0.14730609566957523 2.379933542473142 0.0
316 1 1.7028477212542206 4.348165891867294 0.0 5.269964648211923 15.610500197528863 0.0
317 2 15.69631800890342 3.8522930595384413 0.0 1.9728414980813842 -7.443310445405606 0.0
318 2 3.593880576161006 14.905666287851988 0.0 -2.2659275676619113 12.632713472096306 0.0
319 1 3.9942910535980016 17.57570929651408 0.0 -12.642011165836534 -0.3612300955450125 0.0
320 2 0.1320659414435253 17.185729669987186 0.0 5.847654308760881 -4.999656579197632 0.0
321 1 12.24338227832829 5.350127770701311 0.0 -0.9375545836883835 -0.35768620726267836 0.0
322 1 11.720556423111248 11.392344341182868 0.0 16.923477449100528 -3.7547486388864235 0.0
323 1 17.58452259836284 4.175248246202051 0.0 1.0432856126163665 1.7536311835568197 0.0
324 2 5.695346262843863 0.3970178793171625 0.0 -5.310283202876275 -7.065304385723763 0.0
325 1 15.638529272985908 15.891279043275027 0.0 -10.88177029807312 9.459175091787015 0.0
326 1 14.69878939798574 7.3388544442389225 0.0 -4.78283441888771 0.13482378152310048 0.0
327 2 16.99384037221616 9.353278654123129 0.0 13.304394829870834 8.496126174680429 0.0
328 1 10.470531207110161 15.365154796980738 0.0 8.229198307394167 -6.587347993523358 0.0
329 1 18.472747583501484 18.708833555023347 0.0 0.19847175170665993 4.122706947249256 0.0
330 2 8.55268271326008 4.819108080341651 0.0 -5.981711064232816 -10.835311271867942 0.0
331 2 0.6077296901756993 5.681342626283138 0.0 -2.014961940588477 -6.832535624629342 0.0
332 2 7.8074990965490585 19.23526444199075 0.0 -2.856315093772417 -3.6750274145607467 0.0
333 1 12.148033884186134 3.2164671566024667 0.0 15.762415765122554 -2.805398446042713 0.0
334 1 4.382903150825524 6.570957189680203 0.0 -4.82001526179694 15.526289385899725 0.0
335 1 2.187944127247879 11.804238098653958 0.0 -5.213662593414907 -18.54426802389214 0.0
336 1 11.499385106002723 9.81490231916597 0.0 -0.8822540348393976 -18.99636237300503 0.0