ITEM: TIMESTEP
0
ITEM: NUMBER OF ATOMS
400
ITEM: BOX BOUNDS xy xz yz pp pp pp
0.0 19.7609 0.0
0.0 19.7609 0.0
0.0 10.0 0.0
ITEM: ATOMS id type x y z vx vy vz
1 1 9.066407031004276 14.28638342185084 0.0 -15.195616326989382 13.779923042122824 0.0
2 2 18.52138287546008 1.353516477362952 0.0 -2.506376386429265 2.5717102086965515 0.0
3 1 10.499164121829489 8.407115089200706 0.0 19.122206513469667 13.518991015586387 0.0
4 1 18.01080007709399 12.932556780123234 0.0 -8.879177094294128 5.018900651170707 0.0
5 1 10.856683226053285 2.013438495784666 0.0 -5.324715107584617 10.69540748556796 0.0
6 2 11.282863123627894 7.106055373734321 0.0 2.8993936336054125 2.2159480890355745 0.0
7 2 13.888817310066022 17.15487470067832 0.0 4.076679566477891 -10.909553093979172 0.0
8 1 13.997695638160096 19.148920081231687 0.0 0.321319179184412 1.4047555043223021 0.0
9 2 9.357091780316765 6.883169949068496 0.0 0.5401119167909355 1.808476943697256 0.0
10 1 10.88887809363636 4.281575284452863 0.0 6.4841121167502775 -2.031267783192602 0.0
11 2 12.041885420964618 11.511846785285854 0.0 -1.8106674818157609 11.184934634018957 0.0
12 1 12.08113769491479 8.237629001113357 0.0 -14.536202795105172 -6.503600910983601 0.0
13 2 17.002631491253982 15.08134386053347 0.0 7.393207349736544 5.146740636488217 0.0
14 2 8.187375114853198 7.455122809818238 0.0 -6.16704079592248 -8.412364265006865 0.0
15 2 4.28417081154262 2.95006762973741 0.0 -3.134204620739736 2.83176155432153 0.0
16 1 5.135019463660797 4.7028076155547485 0.0 -2.714085373913091 1.4137087384154563 0.0
17 1 8.633265678054599 19.027298813570983 0.0 0.8580468082032173 7.441574847277534 0.0
18 2 8.791576978127605 2.8370365315828314 0.0 -9.827855406756639 -3.0174776875856635 0.0
19 1 9.526924724455272 6.108842854299211 0.0 -0.7119387457677196 5.172541403181069 0.0
20 1 13.42505957116498 0.4569999449922738 0.0 -7.193153285730379 2.259199077400204 0.0
21 1 1.1067964985342318 7.425711352472745 0.0 4.484427861445083 3.762258701568771 0.0
22 2 2.4006549880307344 13.796345714488 0.0 -2.3533161750580636 -5.700886780654222 0.0
23 1 4.084105882643357 19.171671238148313 0.0 3.786069401295627 1.8460029251534869 0.0
24 1 10.819606765878495 13.272705915764963 0.0 -0.11468348082684827 -12.110647483971434 0.0
25 1 2.98450525878501 11.08117527193789 0.0 -12.089246271079853 6.439216302646187 0.0
26 1 13.372832660508472 11.302298852855797 0.0 8.11614232894257 -14.780969267583805 0.0
27 1 5.296592884676664 5.478312918882586 0.0 -7.133018024649566 -20.924585913218404 0.0
28 1 8.986058711170923 1.5900957353507894 0.0 -5.8324201940802265 9.837520243343715 0.0
29 2 1.2633486278939186 11.788437717233583 0.0 -1.621592545549771 -4.637887703109242 0.0
30 1 0.8931455309641314 3.4218383441179006 0.0 -4.206300826641902 12.871255964832379 0.0
31 1 19.190085626488074 9.102108391858838 0.0 -2.7045300857600103 -11.48961918804284 0.0
32 2 16.618992890460117 14.271898507054276 0.0 -4.826684827465117 -6.636540502164169 0.0
33 1 6.090494528501825 11.520793440227788 0.0 -12.76500513360628 -4.702379120500932 0.0
34 1 15.682979761626493 15.142466825664311 0.0 6.702591951729625 -1.980064931750515 0.0
35 1 5.365265323162872 4.0307643791821315 0.0 2.474106742254203 7.069733648721678 0.0
36 2 17.38099543106807 8.177126023272557 0.0 -1.4068612409106278 3.823674420234631 0.0
37 1 14.284643629626053 15.008457048483788 0.0 -1.0947074127064953 -2.4346779573381716 0.0
38 2 4.357661497905503 14.828741798722417 0.0 -0.8317015559203508 5.274382266936087 0.0
39 2 0.9901916616268085 14.006167422950039 0.0 4.457578799549084 3.0708732795172557 0.0
40 1 4.183647957506318 13.12736484544006 0.0 -10.967538174512416 11.978358859969093 0.0
41 2 15.602981233634473 3.7278653184270407 0.0 1.2910429405467923 -7.778877186637314 0.0
42 1 13.309124046536203 19.028175826314936 0.0 12.323544498297201 3.3100424016330097 0.0
43 1 14.32993537198389 12.058375085587963 0.0 -3.354496028141528 7.041130658220503 0.0
44 2 8.296897892222969 11.36897111266426 0.0 -2.428922190947848 0.24997982775007857 0.0
45 1 3.7701100447157367 15.998546916962342 0.0 -5.181435488506724 0.8070463370499552 0.0
46 1 16.59424480200772 3.8064511419495504 0.0 1.2915650596663735 5.062695530492655 0.0
47 2 14.982751721749738 8.891615546092556 0.0 -2.579845478083685 11.81320229339715 0.0
48 2 8.70367522359962 6.213840919585621 0.0 11.292804759796867 -1.047159781311512 0.0
49 1 15.922086776572417 9.787647045294424 0.0 -13.40656159372569 6.634117177971984 0.0
50 2 11.673708733283293 9.003645714097052 0.0 -1.6700969272030617 1.4369243274105936 0.0
51 1 16.831782253505647 0.05748406994807471 0.0 1.3409272664540948 -5.311105991246143 0.0
52 2 13.084832552063851 13.550274894193148 0.0 1.6855453846322537 10.0615347357774 0.0
53 2 1.67129057377046 18.669417445211458 0.0 10.697573180840648 -2.9096981399832074 0.0
54 1 5.756588880778522 19.33602966818371 0.0 -8.471417435715168 7.849106163284643 0.0
55 1 14.908077382977709 1.5149304408078268 0.0 -20.857398323330777 15.58197446375039 0.0
56 1 14.403869339816866 6.7399707839594765 0.0 6.937932971638847 -6.308831603442238 0.0
57 1 5.663296591310058 12.134375106462121 0.0 7.099872604097688 -15.44107478576123 0.0
58 2 15.583309893413723 6.453922691598779 0.0 -8.006233823060859 -11.732850581827638 0.0
59 2 6.210324769082567 15.797998753686388 0.0 -1.2647295239935643 -3.5980205921632122 0.0
60 1 17.347102846537407 0.5533971607161287 0.0 15.500608858122256 3.543451819794983 0.0
61 2 4.842007641204269 10.314819973888849 0.0 2.861959090619427 1.034653941722346 0.0
62 1 13.524522553068563 5.272798160229358 0.0 13.693744854203535 -1.2492129587469647 0.0
63 1 10.78272866358489 9.047790719176826 0.0 4.520304317750695 3.457219149287616 0.0
64 2 5.16430329340511 13.070365092962511 0.0 -2.1174316041760313 2.9362205269487616 0.0
65 1 8.600453629137263 4.710269717759413 0.0 -4.474084054287941 -6.683381143373367 0.0
66 2 17.999927064229855 18.163129152297294 0.0 6.45146511135626 5.47964643323418 0.0
67 1 19.02572476417947 7.182767240326592 0.0 22.27701738948704 8.58251954907674 0.0
68 2 16.020913415474467 1.1287974680461987 0.0 1.0446092515543908 0.03570511456034399 0.0
69 2 3.3137090118095114 13.317873399937453 0.0 2.5317773003724273 -6.264495372766417 0.0
70 1 6.613875770528289 5.500071422925683 0.0 5.721776642200127 -19.493186750830635 0.0
71 1 12.102873191791936 4.906083272107735 0.0 10.617383362793444 -5.223001717470459 0.0
72 1 7.429855929081115 0.0066264813312641 0.0 24.430062462654973 6.047191103060378 0.0
73 1 11.833485651728378 10.63735324565103 0.0 15.112034783067747 7.892696786719202 0.0
74 1 2.738098214543709 4.273353436981114 0.0 -17.474177549814794 9.6226219616756 0.0
75 2 5.794592716930135 14.938719549068983 0.0 3.625778745640591 -4.446903224331749 0.0
76 1 8.07161548626735 10.333641253969066 0.0 18.12602106893365 -4.712158144066938 0.0
77 1 12.294515621183685 9.790482605889157 0.0 3.565567350219495 -15.52128444709479 0.0
78 2 10.631595807043315 14.456943170538311 0.0 3.2543732949339077 7.818081023085686 0.0
79 1 11.195137345384312 11.51180460642973 0.0 6.781779476484531 -5.983780864954254 0.0
80 2 18.929872038555843 3.0812039838238174 0.0 -3.735515077147285 5.48324265339411 0.0
81 1 2.388937677157138 12.88639317986 0.0 17.832475123595124 -8.122305863605208 0.0
82 2 6.792264287605413 12.074035450047466 0.0 2.9174295728142896 -4.886765801912358 0.0
83 1 2.958927219070942 2.2472513578334485 0.0 -1.449362120294919 -12.644053661494185 0.0
84 2 18.558110236997155 17.255594848772876 0.0 7.736790015127446 -3.942584025980101 0.0
85 1 3.488707343377096 16.72879259250843 0.0 -7.035718725573465 -9.428927222551941 0.0
86 1 15.174040886916158 17.360509549887766 0.0 -2.1258506551783745 -6.647425783785495 0.0
87 1 8.963366531558142 18.577507525596612 0.0 -8.011275705229831 -6.76029788974016 0.0
88 2 7.746072140381236 5.088646718514094 0.0 1.4273946041577135 0.1146819176595306 0.0
89 1 11.083016976107533 0.8927032817737789 0.0 8.126639091196042 -2.839909355160078 0.0
90 2 17.268227997755762 18.938165937560974 0.0 -2.3031538467468615 -6.101023602823747 0.0
91 2 12.591827946518201 17.282499017435377 0.0 -0.7752117242173436 12.967453488222091 0.0
92 1 12.530874058039934 4.54057640113108 0.0 2.6072325462028267 13.839603170658034 0.0
93 1 3.0179391679220617 6.970019352334982 0.0 4.33846301223372 -6.335344848575904 0.0
94 1 5.081565701881611 7.050259103146372 0.0 -0.20274032098157574 6.6489152739384405 0.0
95 2 19.073414400749588 11.072691550965624 0.0 -2.291467241108718 -0.4798376473025675 0.0
96 2 17.41725696861592 4.581385164107852 0.0 4.0498243290865705 -0.4252939517414103 0.0
97 1 19.71561582116348 9.977176655914828 0.0 0.6966571617214605 -3.7532696860841215 0.0
98 2 9.657447803187347 19.018267605104896 0.0 -0.054964440892656896 -4.268063495077631 0.0
99 1 12.613982915799095 10.701124295009265 0.0 1.4016049627324072 -2.398553537471918 0.0
100 1 0.06770212628052694 2.7851220210263743 0.0 6.490461255031767 -10.033675639812836 0.0
101 1 14.085204634956707 14.069815313095594 0.0 -6.037982622904526 -18.114259203424474 0.0
102 1 0.949894104815672 16.60651781146502 0.0 1.1021108965189341 -7.217881997852726 0.0
103 1 12.076148744920602 13.247419551521148 0.0 -5.8566207419788805 6.557568609239499 0.0
104 2 7.2063520138448 15.934024570686786 0.0 0.8958395639914314 9.15977911125686 0.0
105 1 13.755178313458519 18.764788923726616 0.0 -19.93823306308376 18.25939164887321 0.0
106 1 6.188078649388944 4.033153403087862 0.0 -0.8150704478177331 -10.026989024646673 0.0
107 1 2.733085988164305 12.394013999985514 0.0 -5.312592942320933 -2.2532636570603026 0.0
108 2 16.04940110819187 5.652130964556291 0.0 -0.3207663018772763 1.7277592136596476 0.0
109 1 14.98995549066806 19.501794241616086 0.0 -5.2707926319253104 10.532330033269433 0.0
110 2 19.364982388624686 5.0988538169445 0.0 -0.28402850949052016 3.3513977423212253 0.0
111 1 19.666655803373086 7.311256385911092 0.0 -1.1784806698040862 5.810904009024647 0.0
112 1 6.502206618163428 2.0704598393269453 0.0 -6.242735544644047 -3.7535344044469086 0.0
113 1 13.797149904083467 13.054303878323443 0.0 13.600461371738572 0.46039509988383376 0.0
114 1 11.017134093534711 2.571283297385237 0.0 0.8399380697837777 16.602827976609674 0.0
115 1 0.0852468278617698 3.463350046858846 0.0 -6.922947101857402 18.695528256385067 0.0
116 2 3.037453905619138 7.801407334964066 0.0 -0.1937106598721025 3.174897194694076 0.0
117 2 1.3369375196194342 11.025497987091214 0.0 -1.4501953920770334 -2.900028766496082 0.0
118 1 7.903812326513688 6.587515413310283 0.0 -6.327630728370502 13.369363031102946 0.0
119 1 9.32650903062534 1.214150573256788 0.0 -3.3920396089054408 6.818819654623071 0.0
120 2 6.749052578377847 17.944289247643663 0.0 3.122858614269094 -2.0864240606359465 0.0
121 2 13.526765212704905 16.161602869217507 0.0 -5.219678027630782 -2.044579966236749 0.0
122 1 6.53852915892802 14.37788067378681 0.0 9.349021753046186 -2.437236775193952 0.0
123 2 7.583369201570339 2.1024170923666454 0.0 -4.187670194670177 -2.7058059729665085 0.0
124 2 19.31041811044609 12.162336410307258 0.0 1.6751839637847539 -5.303772009425532 0.0
125 2 17.907114710701727 5.974310294126553 0.0 -7.3233981264995 3.857204016659454 0.0
126 2 16.311230488019515 17.65357546551064 0.0 -1.9146656220344453 0.2566222281106499 0.0
127 2 6.724814588549945 18.807214250604954 0.0 3.4431868191554402 6.340338086579722 0.0
128 2 3.303759951142332 1.4721459809274389 0.0 -7.323563575467214 0.1204715617313373 0.0
129 2 13.19932188419593 10.160228758765385 0.0 -10.768576473116047 4.852567082684778 0.0
130 1 15.759716001909426 10.941256475523291 0.0 -1.538670699322256 -6.218431830771953 0.0
131 1 6.882654509481971 13.970533513504456 0.0 -3.9314003090952303 -6.677453303656273 0.0
132 1 5.097269634839024 11.850366850129753 0.0 3.350137366012927 2.58777254836363 0.0
133 2 1.9040831768741373 1.7176921443973345 0.0 -2.0413087840920716 2.2844932581639084 0.0
134 2 15.432600543074766 0.5691240065347085 0.0 -14.670414098105343 3.818742573531309 0.0
135 2 12.570585203613934 18.433073463041584 0.0 -1.469256167777488 2.759214048919554 0.0
136 1 8.669198223729348 12.039879660391911 0.0 23.405881325169197 -2.3902745014253175 0.0
137 2 17.66697306570872 10.575643037688106 0.0 -6.267451090418713 -2.2221959682027896 0.0
138 1 1.974158478719829 4.670437359842018 0.0 -18.14964286185823 7.505878466428772 0.0
139 1 14.038741971881533 0.43489600280486845 0.0 -3.6075691414095905 13.513966593299282 0.0
140 2 7.079210879218939 1.3459903836818787 0.0 -4.160965907135209 3.6856325369430154 0.0
141 2 12.56769044586206 12.262474824200698 0.0 -3.627529496916899 -5.413057302795327 0.0
142 2 13.396379987961412 14.869298565247218 0.0 -8.430557258211255 -8.564317243749041 0.0
143 1 11.739906699343512 19.1245249358057 0.0 14.48840833905522 -0.5488583622594609 0.0
144 1 11.449365159765206 0.44436025248478433 0.0 1.8626988336651562 -21.13057113387945 0.0
145 1 4.882308958769586 19.11715364512317 0.0 -6.177538938058092 5.785703852714411 0.0
146 2 18.281487032310064 19.10143626551162 0.0 13.30453566952471 -2.8202500724235735 0.0
147 2 18.20601791958028 14.501834734597493 0.0 3.757877163589358 3.503992381398733 0.0
148 2 12.627199236637901 0.12274179477001296 0.0 11.394652761918646 0.5228395166470469 0.0
149 2 0.09200894907283388 8.559980343737084 0.0 -7.250477693470176 0.22641343951397047 0.0
150 2 10.185124227715079 1.4457910730611474 0.0 0.2628187647226846 1.8992239459653393 0.0
151 2 1.4796499790464606 6.646267217988728 0.0 -9.611846813368505 4.988375661106522 0.0
152 1 7.214205188893877 2.994039232180049 0.0 -3.358341445446685 -5.021684103526486 0.0
153 2 14.68620206557555 7.690217790353351 0.0 -1.8846670438791286 2.4113878569751286 0.0
154 2 8.533161990168079 16.359695412463314 0.0 0.8958213012770849 3.2726442526723667 0.0
155 1 6.922569030214584 15.122398372253903 0.0 -7.615179322698518 -2.1673307325302544 0.0
156 1 17.647032265132566 12.46854170432737 0.0 19.610986341775906 -5.548942139951495 0.0
157 2 4.086667274967638 1.099691448791015 0.0 -3.300704977926135 0.3876157046926676 0.0
158 2 17.439945971681475 3.1708905088275583 0.0 -2.1247349070743966 -8.379315428874094 0.0
159 1 14.871185505676161 13.683799205773242 0.0 6.68237689589794 -0.14587364302080938 0.0
160 1 1.9129351469127698 3.3493232708249745 0.0 -8.483783239608222 0.6082668328918008 0.0
161 2 1.865165693834553 10.194478770842355 0.0 1.5141600913791036 -6.398598446201082 0.0
162 1 7.400773753931602 8.431499019846218 0.0 -9.615008094658481 -7.7307482254581945 0.0
163 2 16.84704008997017 12.605159080852788 0.0 3.693306340383584 3.907777205389221 0.0
164 1 11.796573190909495 12.228493009699216 0.0 0.392460760227994 2.8453322152885834 0.0
165 2 11.707738600998535 17.487883355875937 0.0 1.4284180026045037 1.698102138987225 0.0
166 1 10.283008115541842 4.423175370854684 0.0 13.924549041597333 -7.476680036789939 0.0
167 2 18.309400168833974 16.34675530604886 0.0 1.4555287178028935 -1.450642123780374 0.0
168 1 3.278021045161878 5.845524385653278 0.0 2.5032446540409508 14.926701224829499 0.0
169 1 6.135760574027416 19.573743866822095 0.0 2.4222734132330697 0.42724706083618 0.0
170 1 7.220765176502784 6.962809518073445 0.0 -7.212477192983575 3.010524146825228 0.0
171 1 19.556854790906264 16.75257871594635 0.0 9.008892223020675 7.993053924634699 0.0
172 1 6.158963757192918 5.0985511483071955 0.0 20.493570414090815 -5.911893842692239 0.0
173 2 4.820132391281485 16.817940530286958 0.0 5.3041623294513585 11.5816531024983 0.0
174 1 14.7693798760175 6.148803375415213 0.0 2.2037089241552583 9.903294754536837 0.0
175 2 1.7496957910680018 19.531610139316857 0.0 7.244195276661737 -1.1401336647191793 0.0
176 2 9.340159515044169 10.848596525377319 0.0 4.5763765189250325 -2.6996259409625556 0.0
177 1 6.150816748225075 17.210213912050918 0.0 9.381103178735447 5.925080254484543 0.0
178 1 4.8172161617932625 11.430554277022019 0.0 6.0411902186976825 0.004233473807620472 0.0
179 2 15.40018081188414 14.266667982374662 0.0 -21.601979806376853 -2.6972716858010477 0.0
180 2 15.323353867697136 2.7339721815961866 0.0 4.659020222656289 -2.97081491494091 0.0
181 1 2.4585723776659347 2.6018994389889647 0.0 20.88876631416144 -7.766123802113682 0.0
182 2 16.63426026803518 2.7969906875153288 0.0 3.1581699147234192 4.181226943113138 0.0
183 1 3.022402685780301 18.61401851008893 0.0 10.093920421427853 -8.701533413560599 0.0
184 1 14.00938004211296 1.9980768086151635 0.0 12.274856096407767 -23.12680239928487 0.0
185 1 4.822913506981994 18.134321932304413 0.0 12.714883005882598 -9.56986629603644 0.0
186 1 1.3714406330261557 3.9782081009861168 0.0 -10.57644879565023 -10.706784734189005 0.0
187 1 1.6816881086576978 14.721453083912674 0.0 -3.5387842011009694 3.2948688896178546 0.0
188 1 10.238720135854122 18.31436873272685 0.0 1.7425608541520077 -4.406236464823545 0.0
189 2 10.886995339115192 19.38571367198545 0.0 0.9589219814964975 2.251564033986185 0.0
190 1 10.986485375455269 3.326959034976672 0.0 -11.699639273071456 6.735592584712989 0.0
191 2 7.69863987688383 15.17037123932944 0.0 -2.1109703776658932 -0.6183191734976334 0.0
192 2 13.22492521976808 3.2216004193332 0.0 0.5326117597447332 0.07759773458007085 0.0
193 1 10.411691648922641 3.619862717702937 0.0 6.775723698236008 -1.4987537230448094 0.0
194 1 13.905462544543871 15.47919321779418 0.0 -14.341848837485099 -18.20487943041932 0.0
195 2 7.103933581301905 10.765622335814113 0.0 -6.665802972225148 3.7896828639891096 0.0
196 1 16.26603701295403 11.144056026558168 0.0 5.433579538870223 4.806357224999221 0.0
197 1 12.949515267461054 2.294369311108613 0.0 -0.5709009655577248 -1.100880968766977 0.0
198 2 10.504194873542586 17.523367928075825 0.0 4.804920607128879 4.549123673241587 0.0
199 2 18.162225302544673 7.664998639846123 0.0 3.3732865796892413 -1.8386589597730938 0.0
200 1 7.198037711589089 5.740811232809781 0.0 2.6219263158625834 2.9976624151842355 0.0
201 2 17.17013730507684 11.653654455051244 0.0 1.3851469872940985 1.169205350007485 0.0
202 2 12.45643509364411 1.2614801686425414 0.0 -0.4653703227649105 -9.869672108954424 0.0
203 2 0.264829491614599 0.1891318315512564 0.0 0.4942361596993186 -6.3233355866377225 0.0
204 1 18.40534125661046 0.3230379397890148 0.0 -3.3164000276653405 0.32800772051591637 0.0
205 2 12.719479488434981 14.40371056841351 0.0 -8.106979529987562 9.709057465628732 0.0
206 1 9.740849029717458 4.257454670392318 0.0 -4.806204109471392 -8.365413285984955 0.0
207 1 11.362137089991192 10.494958293668015 0.0 -15.645032997950338 5.771724818853948 0.0
208 2 12.843713249228768 6.20873648583573 0.0 -3.4041351396663364 2.08290974356128 0.0
209 1 6.549322507187462 4.52138700000425 0.0 7.407927805927603 13.31764830161678 0.0
210 1 16.635194366235684 10.852225230930058 0.0 -3.9968787508461237 -3.9729735874354573 0.0
211 1 7.892531506054022 6.005740872475029 0.0 4.997024307640774 -3.922247797942876 0.0
212 1 6.589965685611074 17.041953281968212 0.0 -20.611120275588203 -2.4000917658968026 0.0
213 2 7.645551267917016 12.67891691982516 0.0 8.065215322376218 4.077882584145582 0.0
214 1 14.563006031833684 2.229011953383661 0.0 -0.04387624958934129 -6.269331855423563 0.0
215 1 16.605074993559157 10.015775905221682 0.0 1.2110700341692278 4.192650444248788 0.0
216 1 9.245501039052613 5.616105306692508 0.0 6.191987723216726 -11.362502254691272 0.0
217 1 16.444355437741816 9.497254875471004 0.0 -5.704666280891047 -9.087917136283837 0.0
218 1 15.643121555429522 17.0014696310818 0.0 -2.046292525672133 -13.685298074172591 0.0
219 1 11.042450614332607 7.985593965280566 0.0 9.761211940567694 9.838254083353245 0.0
220 1 9.766191102755217 13.477913169417635 0.0 -4.589804921823664 -1.2016632985790838 0.0
221 2 9.37741474084105 17.776498310806364 0.0 -0.5858297503547809 1.055727213146789 0.0
222 2 13.89039896672382 8.68081813897612 0.0 13.201208293418588 -2.8457228879460534 0.0
223 1 15.24149830103414 18.98011961322158 0.0 -2.783537142756598 2.27140452668079 0.0
224 1 8.003756053124086 13.963664705997832 0.0 -25.098527095635344 2.8436623604239823 0.0
225 1 9.477485629705301 2.0348884949214723 0.0 5.0623646601597585 0.7412482287112231 0.0
226 1 10.002105923103219 8.71253921763408 0.0 -3.273635327740859 17.033929932336324 0.0
227 1 0.6247007742653939 10.639404628356372 0.0 -11.911563396839274 -13.913802593685707 0.0
228 1 17.78443823178054 1.7000942331190834 0.0 -1.0572658616050292 -3.2681494645799654 0.0
229 2 0.9632088017413533 19.291997670255128 0.0 10.32553374567818 -5.303012593516463 0.0
230 1 2.278651168119496 11.900100310392672 0.0 -21.80186788596969 -4.531144981337954 0.0
231 1 13.876710456155966 6.783649652532234 0.0 9.399018934288199 -5.613998405106569 0.0
232 2 12.818597026653597 15.528016514479612 0.0 -8.41063871169735 5.423141608535863 0.0
233 2 0.10047055221521489 13.906604972981551 0.0 -1.2878420420580938 3.397255341274037 0.0
234 1 3.743025867936843 19.714437429065427 0.0 -3.1049141413104993 -1.7244837851528252 0.0
235 1 0.6873630720770428 6.893778045032071 0.0 -2.8129274178989405 -9.20185242151392 0.0
236 1 5.535938994132901 17.549757523525862 0.0 -1.2708472915554085 8.738887251995225 0.0
237 2 7.790908549556223 18.16639526232913 0.0 5.949351221734922 -8.985314701392022 0.0
238 2 5.503872494782535 9.198955608846289 0.0 1.4107070160570823 -16.97239838897802 0.0
239 1 9.673074302078994 4.935915506917716 0.0 10.987472215772437 3.4727019236186436 0.0
240 1 4.509944233806566 4.426236098310608 0.0 -0.41565394891002266 -4.1922355234692334 0.0
241 1 19.676903246757615 13.104299356981684 0.0 2.200513368727624 -2.1078808723412363 0.0
242 2 18.396314794572685 2.373997713880883 0.0 -3.7099091717557884 1.1140422808524901 0.0
243 1 19.175287723221345 2.3103645687021 0.0 -1.4424456549050282 2.117412703594432 0.0
244 2 0.5537651730660694 15.297342660007379 0.0 0.10472590192969791 2.5251138328969533 0.0
245 2 3.728812648366784 4.84604384512766 0.0 5.010328307177082 11.213027427521327 0.0
246 2 1.3624026347720164 2.565250573246986 0.0 -12.265877643736616 0.47632261469455867 0.0
247 1 10.503248610982272 11.132523337542024 0.0 -5.761680565088014 16.28496204842138 0.0
248 2 6.636657815142826 9.276978569973036 0.0 0.8052640038869043 -2.5901438727000783 0.0
249 2 6.428931371274466 3.1118876481983513 0.0 -4.985529346460813 1.7521843461698345 0.0
250 2 5.388155416671134 0.9938529553313002 0.0 -3.1131358447258792 14.620078546712111 0.0
251 1 6.299047739098855 10.54603973784293 0.0 -2.0794049573355573 2.388827235608169 0.0
252 2 16.231035751736616 13.39561574990098 0.0 0.33748471799518087 10.86945277179442 0.0
253 1 13.874771172286 11.891344830175049 0.0 -8.84425558580192 0.4105324263999118 0.0
254 1 11.064791928461768 9.866469662576371 0.0 -3.0683868088698625 18.280248468916035 0.0
255 1 8.777388833629399 12.587043058884163 0.0 -16.86016765416852 -2.544912950866194 0.0
256 2 5.967547729291454 13.28069970113804 0.0 -5.644758294602082 -0.8361760921922811 0.0
257 1 3.899295173063777 10.809988159465957 0.0 2.346538070852742 -1.2938273710799828 0.0
258 2 0.42563869663724363 12.089935905494377 0.0 11.771973615370545 -5.046625299187454 0.0
259 2 18.17001225648886 4.0570129344999275 0.0 -0.6152033580509504 5.124097296270459 0.0
260 2 0.33102259132121775 6.153261279546873 0.0 -1.2647434291968684 -0.9826195304672428 0.0
261 2 8.063300749834205 1.268142592653519 0.0 5.871112522198901 5.551559707062259 0.0
262 1 14.216845634813296 12.680069831125858 0.0 5.639093672220944 4.084107702002676 0.0
263 2 14.383481518050749 4.827642276908573 0.0 -5.585171820494634 -9.347483510497252 0.0
264 2 10.53336908742823 16.55369614962421 0.0 9.017666016241318 0.8882473762018986 0.0
265 1 9.844139320166537 14.355182634715145 0.0 -0.6278171244177172 10.843113283078162 0.0
266 2 4.05737370170362 9.592162285602818 0.0 -12.091085074641901 3.100422335447174 0.0
267 2 10.023133895757214 11.872694293050067 0.0 1.9957551151728967 1.8369102637620154 0.0
268 1 8.850111317909628 13.448035622223127 0.0 0.13358651038290367 1.296720318968755 0.0
269 2 5.752118850072592 16.553210769960472 0.0 -6.513000800906679 -2.3815986688290893 0.0
270 2 9.376812284858456 9.123860023729057 0.0 1.3166709408951516 -5.812623379191848 0.0
271 2 0.44314322737960044 17.530738513581383 0.0 1.1729075256234047 -8.336637317555063 0.0
272 1 1.799304545446709 5.364162303551397 0.0 2.0227977528533883 -14.86298687779946 0.0
273 2 4.100671837531831 6.054272555161731 0.0 2.595076929971983 7.191254899957913 0.0
274 2 19.415939774290266 14.839511315899593 0.0 5.423470807806029 -8.119998969847584 0.0
275 1 0.631566826577789 16.070004221291388 0.0 12.493433822766079 11.310494073268293 0.0
276 1 18.011120027093686 13.451437875318621 0.0 9.821730293578135 -0.5317666434346919 0.0
277 1 4.227844540325227 11.431041224677552 0.0 -14.83124006178625 -5.577166656700185 0.0
278 2 0.9652135892242354 12.968487346914264 0.0 3.4273132906007393 -0.622478179634375 0.0
279 1 19.564332680807137 3.909115821905568 0.0 -7.1104680775107525 6.0368481214710865 0.0
280 2 3.4878207946360584 8.811130453631753 0.0 -0.16869157920170583 1.2792124161152516 0.0
281 2 5.3162997515649195 2.8622929979559233 0.0 8.163931592233443 0.5589713488206608 0.0
282 1 13.718314212608508 4.122347581763268 0.0 2.627262642486914 7.292788163449096 0.0
283 2 14.920177311102558 11.537265168171242 0.0 -9.683140341011354 10.731789742288184 0.0
284 2 10.505255022176566 12.61628105031504 0.0 1.9404065941983706 1.4532954081846383 0.0
285 2 7.16132793748031 3.934392934383404 0.0 2.3651231151657113 -4.115960727873336 0.0
286 2 16.31842287083149 15.862691429550638 0.0 10.630083218121598 -4.47989890658704 0.0
287 1 12.189056087969565 2.664658540069377 0.0 1.922201593663019 -15.786139864236699 0.0
288 1 1.5124072221396083 17.417584058117377 0.0 -8.423047304693185 -6.428399929172451 0.0
289 1 4.12647574468776 18.18214169265346 0.0 9.805790521752337 7.393774279134328 0.0
290 1 2.799568229645397 19.539845315755553 0.0 5.920059920562338 1.7451922050646376 0.0
291 1 19.375915412733203 4.358713660130528 0.0 -1.4715649574157073 2.828605790151782 0.0
292 2 1.3722740416251158 0.9557376194991464 0.0 -6.133373486407455 -1.7759868529380118 0.0
293 1 11.518660369443735 13.55218448718199 0.0 9.123866177947473 -10.209704803325527 0.0
294 1 15.928244453265762 12.56993891100849 0.0 16.26395698034676 -6.257515629964498 0.0
295 1 15.675334563764943 19.611719354074676 0.0 -8.56125599676384 2.2648979492433696 0.0
296 1 13.97560794466731 11.043935767107683 0.0 9.163736878597138 5.560116720334043 0.0
297 1 5.194360549169571 1.8905808840182226 0.0 -10.840576529507482 -4.11357419963036 0.0
298 1 19.108309668901725 0.21445021562491018 0.0 -8.346160151452143 -5.987493203563005 0.0
299 2 7.9754671821043255 17.218326043966652 0.0 -0.6625813743381884 -5.277278744526602 0.0
300 2 5.118917800330928 13.93478184908806 0.0 6.019122513364266 0.8469897210145897 0.0
301 2 17.70171605324301 9.730545390425114 0.0 -0.2883740415455724 5.952003156907405 0.0
302 2 13.325563323920461 7.875154098197881 0.0 -0.32014895961140916 -1.613451959226425 0.0
303 2 16.997849257979706 1.5469604817878493 0.0 -1.412155577403718 -4.017228139775495 0.0
304 2 2.542047024938664 17.068068345840878 0.0 5.854765938958906 5.240239458962746 0.0
305 2 10.739107576407502 15.562195502733484 0.0 7.261980608990202 -2.640254464168378 0.0
306 2 2.533450787719893 18.000747064206028 0.0 -7.573163523463488 -4.344814604231645 0.0
307 2 11.480535856205952 14.706860769615496 0.0 6.962431114811874 -1.407551690390768 0.0
308 1 4.232760613662732 17.417088806188904 0.0 -1.880003245220992 -9.05948934844392 0.0
309 2 3.3261761999934025 14.705914657073603 0.0 -4.614634199040423 -9.198867021256127 0.0
310 1 4.684148079235328 0.23588406587636573 0.0 -3.483121201559143 7.043061553249294 0.0
311 2 12.647859855924455 7.14148551252568 0.0 4.241589491255115 2.725852847882238 0.0
312 1 9.950794360444997 15.362182121497618 0.0 0.8008798706266788 4.627238824281674 0.0
313 1 5.893051415080333 1.8991964084661972 0.0 2.7642282880471676 -4.248962295399531 0.0
314 2 11.34433815069435 5.005201498856261 0.0 -11.962927353258884 -1.0414251752929862 0.0
315 2 17.140967276472825 9.019911298747388 0.0 -6.600408524183269 -5.792657258139154 0.0
316 1 19.347979034875127 6.367344814585269 0.0 7.143967993993089 11.363341831009633 0.0
317 2 11.781019614111853 3.7506487815940415 0.0 -7.256018578173987 -2.949254865620715 0.0
318 2 6.475595224098552 7.144010456063388 0.0 3.206168084379984 0.19547943383960306 0.0
319 1 12.574918703056868 8.699993439406091 0.0 -3.5969043224612407 -5.753884745141133 0.0
320 2 17.755097093082373 15.53972733462228 0.0 2.963041848932231 -12.679143081432013 0.0
321 1 3.814254510343433 12.597894951700631 0.0 -3.1710143373531596 -9.14124566908699 0.0
322 1 8.158768687813208 13.464981340646812 0.0 4.774363274402562 2.1329358835828947 0.0
323 1 13.712662281966857 1.4127198142374406 0.0 -8.806941752977304 0.059857814346661174 0.0
324 2 8.804387344784708 3.8125640380836474 0.0 -1.6477986873518393 1.3985529328242476 0.0
325 1 7.228935510192295 9.873055525505881 0.0 -14.159280537297862 2.8463908360376107 0.0
326 1 18.59508585332636 5.396735318311862 0.0 -11.182405822705872 10.40519759790145 0.0
327 2 16.356232453819846 7.03073593964971 0.0 -4.5452034865678685 -2.1822104454143316 0.0
328 1 4.740320500344739 15.565456799335415 0.0 -0.17178529274759682 12.41912512838804 0.0
329 1 0.5070563487078276 9.302692276873422 0.0 -4.187904230189823 -2.1416837337409462 0.0
330 2 9.45586304769393 16.253837093394846 0.0 -3.287556880944342 2.1600339741033627 0.0
331 2 3.5737769640110604 17.618595643891965 0.0 -8.102485860707256 2.0266859314373207 0.0
332 2 15.49562134574721 7.607153218333073 0.0 0.8986533429889927 -0.4130855016099822 0.0
333 1 9.05273335558133 4.780785105097457 0.0 4.477876790449991 -2.2535079870127146 0.0
334 1 17.042200881766476 5.859567379327217 0.0 3.150337660597941 10.430808082248479 0.0
335 1 3.400644514808293 10.564351785510825 0.0 -5.326068875351197 -4.484190738339893 0.0
336 1 16.23872318372095 19.70860578751977 0.0 14.034119182921712 -5.501646734423578 0.0
337 2 11.823520752010484 5.803999243558934 0.0 6.88831313631841 -8.45874602256538 0.0