ITEM: TIMESTEP
0
ITEM: NUMBER OF ATOMS
400
ITEM: BOX BOUNDS xy xz yz pp pp pp
0.0 19.7609 0.0
0.0 19.7609 0.0
0.0 10.0 0.0
ITEM: ATOMS id type x y z vx vy vz
1 1 9.10125539617597 7.804977127871729 0.0 8.379656536301086 2.069927146310492 0.0
2 2 1.440314403422417 1.3080076715346787 0.0 1.3482750005197712 -3.5604110757384815 0.0
3 1 16.913713498096335 19.725628969739592 0.0 2.436847359199664 4.613763313123019 0.0
4 1 0.8898897825701862 17.72500562389419 0.0 8.003751204962038 9.26244652272307 0.0
5 1 19.373407439096248 8.291599752473246 0.0 -12.226702227028666 6.0162649411347475 0.0
6 2 11.470913185856773 0.4600577136197409 0.0 -2.0968721009484472 0.5047007996651275 0.0
7 2 14.192622126514088 15.593305957034021 0.0 -1.6934186175374017 -12.527998699594852 0.0
8 1 11.354740740743036 7.787495686645482 0.0 -12.687739300067866 2.707187331865986 0.0
9 2 14.596055679502575 4.711247975863658 0.0 11.452681542793142 4.4976898411779915 0.0
10 1 9.473157537985609 6.85302232654681 0.0 11.723292452413714 1.010539945341897 0.0
11 2 2.2386442006905245 13.287600536344293 0.0 6.3187130078202545 -9.803446115198543 0.0
12 1 15.970862847734395 1.907225194724148 0.0 -4.514831384478106 5.522547931999073 0.0
13 2 12.201028810252742 13.374867090149353 0.0 -12.429700361104091 10.2805554354742 0.0
14 2 3.6570834173837445 3.752459191048341 0.0 -5.824021662830441 -2.824906904790182 0.0
15 2 1.5239015131071216 7.472631406790818 0.0 -4.695031638218044 9.822763992644145 0.0
16 1 17.91084338830604 16.94711937244418 0.0 3.775288140120924 5.998687267217409 0.0
17 1 11.294667689486708 8.751226241605544 0.0 4.059157567823184 3.077589384487334 0.0
18 2 16.954789557409438 3.476430759620884 0.0 9.527820085516325 -10.0190276743437 0.0
19 1 10.951812690054858 5.884635078460278 0.0 -6.057857323322295 -3.3251891331443226 0.0
20 1 12.921812601433347 15.373335936639197 0.0 3.3589299823224543 -7.9672584874349965 0.0
21 1 19.27721117566857 1.4518968280545141 0.0 1.599746473429241 -17.118399548758184 0.0
22 2 3.186932305779309 10.709961303931918 0.0 9.61663830523249 -4.7737411718138425 0.0
23 1 9.995051424655788 5.225146337982613 0.0 7.978908211226333 8.074071887870995 0.0
24 1 16.200140133023698 17.486206459510374 0.0 -7.130189067541979 -1.58798838025989 0.0
25 1 17.272037109103067 1.1517081247276675 0.0 -4.2915811680718186 7.7316420902215865 0.0
26 1 13.041564457338266 9.545801037312366 0.0 15.931896028878286 3.9448683247023912 0.0
27 1 1.6749275310575746 10.769935962077401 0.0 9.943447548318002 -23.073406151205607 0.0
28 1 7.930949026605973 8.685436653098364 0.0 1.1880216020438696 -14.820130602804134 0.0
29 2 15.794450210864888 4.505919416693135 0.0 12.391221155898538 -4.640146353271792 0.0
30 1 19.32092662713432 2.765736984170846 0.0 0.41891226135212384 1.8769425140600733 0.0
31 1 16.22970134982838 0.36587192021132975 0.0 4.630297649292311 7.911050938195684 0.0
32 2 13.92609550881046 7.363144534122179 0.0 -2.46682037112895 2.62685633973039 0.0
33 1 9.617200807300364 14.224521840892317 0.0 -4.294269783511936 -24.28831590480193 0.0
34 1 19.637113140067164 17.518077272410146 0.0 -3.1804669934966117 1.2672924648808872 0.0
35 1 15.12486308835486 8.467537132043502 0.0 17.53396423644411 -1.8623062363656533 0.0
36 2 5.686002691620541 9.944546689962886 0.0 -5.8461042926265 4.976596204566845 0.0
37 1 16.110022256586166 15.388189792838396 0.0 -8.570626867642902 -12.961031661185856 0.0
38 2 13.687455918011077 1.5283565091642237 0.0 -8.26432041994905 -1.0310816801755487 0.0
39 2 14.578062908909184 3.093946051200624 0.0 4.764182730271508 -3.8974792211720133 0.0
40 1 12.81390473803565 8.164247534387865 0.0 10.811729921931978 -7.252083272853661 0.0
41 2 4.68636094808488 4.660645815801694 0.0 -4.40645863514836 4.966681461649532 0.0
42 1 17.254905757358845 10.097040387501968 0.0 4.2567949854574 -8.877275453778763 0.0
43 1 15.975658678860722 9.010189220077214 0.0 -8.645838634739041 5.436986332418931 0.0
44 2 11.313764656244981 4.948767224894419 0.0 -0.13135932764660288 6.993553077478286 0.0
45 1 12.436592279062122 9.071928409592882 0.0 -3.682046762148046 -13.049078783774506 0.0
46 1 1.3103241018237692 6.636652800538112 0.0 7.072502099874833 1.8208077507103984 0.0
47 2 3.5824512823818466 17.408533503709705 0.0 -7.258030173037084 0.6457890876600675 0.0
48 2 0.31155247889687204 12.50036200466598 0.0 -8.321736697586806 5.36746357657215 0.0
49 1 4.1573281408718525 11.6621276360011 0.0 10.189947572417351 -14.296076278137889 0.0
50 2 8.599617069497837 0.48557150972404384 0.0 2.058377721446732 2.0843018763062853 0.0
51 1 11.542554085608495 16.993072800865605 0.0 6.06498010354447 -0.7023949145857223 0.0
52 2 7.711904278739558 0.6856154307620124 0.0 7.549628653676399 4.230257659619791 0.0
53 2 11.393442607049693 2.070197373464117 0.0 3.123724676166812 -11.465733598576996 0.0
54 1 0.6183172580812126 4.959868396745896 0.0 -21.93927154817245 0.8128176227131332 0.0
55 1 10.793381288529172 8.238886150460674 0.0 -18.88560637659867 -1.1997533672549923 0.0
56 1 12.838358211093611 16.47009358939967 0.0 11.630160370735432 0.2283249522834334 0.0
57 1 2.3016295171918046 17.2039598703416 0.0 5.951293950062254 4.475625501467594 0.0
58 2 18.66311202086455 10.142801714865522 0.0 -4.3208700825534345 -4.736748614739141 0.0
59 2 15.810768578369753 5.373380146299169 0.0 -0.3078955900314692 1.9977592342827455 0.0
60 1 13.03169380717993 10.78693210828226 0.0 10.692398695391109 7.354527477285485 0.0
61 2 3.1340128814877564 12.237330272397793 0.0 -9.797007793004191 -0.48949766635213493 0.0
62 1 4.817253938051906 2.5978656150069495 0.0 -4.508797270880542 7.512894329028232 0.0
63 1 6.537650659825952 15.847132039499243 0.0 3.453122430998666 -4.143085807471141 0.0
64 2 18.39463514938001 5.312046913173106 0.0 0.1294126060478381 -2.328436870201507 0.0
65 1 9.706736222189278 1.246837440058718 0.0 5.558974197723788 2.774617594849083 0.0
66 2 5.9750200335135295 6.090789782325925 0.0 9.5417241649109 -9.267741904804637 0.0
67 1 3.9357720550810527 4.5346287841344015 0.0 -0.9454419885846774 -6.592995099628117 0.0
68 2 10.478919213969778 4.022148606523411 0.0 10.551892402790369 8.42051730565172 0.0
69 2 1.4558881187586468 13.438493237219076 0.0 4.946287237477069 -5.755229366708026 0.0
70 1 5.405798276383799 15.829679597514422 0.0 1.1814317444372118 1.136259475189841 0.0
71 1 9.777640121843543 19.111499998161474 0.0 11.103335799436575 -13.175576636094217 0.0
72 1 0.9640281345105155 18.287341538489322 0.0 0.32401161134123485 3.3854480478493083 0.0
73 1 9.601985457675973 9.882037628733238 0.0 -12.772886140010085 5.509923608144124 0.0
74 1 17.99954942590081 12.313516477105122 0.0 9.153744111586844 -2.4033544702035647 0.0
75 2 16.551126026275025 5.041874507062553 0.0 -2.168166335682646 -1.5025992177373397 0.0
76 1 3.2093970222503168 0.0821126208520601 0.0 -7.389643797783912 -5.646980292232666 0.0
77 1 13.135108419323636 11.886530418198532 0.0 10.766155081549973 7.649186396503644 0.0
78 2 2.8689647618338903 15.810112361920993 0.0 13.720527332421401 12.193862148731716 0.0
79 1 7.179424361632396 14.20748171138429 0.0 -12.255131408579746 -1.7883026747031794 0.0
80 2 17.968894686323047 7.25347144611768 0.0 -9.492677439483456 5.268201418965992 0.0
81 1 6.333272079608258 12.250196519000793 0.0 -6.996885291347275 13.092126988611014 0.0
82 2 8.666192700808033 2.5896083832910124 0.0 -6.740846097232464 3.366589399422364 0.0
83 1 2.073251751863494 0.828428259592671 0.0 -7.464452599452038 4.144803430538516 0.0
84 2 12.58840639430786 0.6716376847755668 0.0 1.7106553784062741 7.5900352210601465 0.0
85 1 11.295897573386585 14.34793799033087 0.0 13.02592526198766 -11.240879090078861 0.0
86 1 16.849442269437713 10.354137795472115 0.0 -7.267274949959422 -3.5984975992291584 0.0
87 1 11.23293678872632 18.41522052253342 0.0 9.90490912252062 4.261906756675589 0.0
88 2 11.222946129127957 6.920391794179643 0.0 -4.3520252717575465 16.66538376462354 0.0
89 1 0.584247381398016 17.26528744684936 0.0 -9.75125114646253 3.9013457953035426 0.0
90 2 12.347636890883583 12.432164581408855 0.0 16.83223864849763 2.329971509589846 0.0
91 2 0.5825130543015791 2.314108847756841 0.0 5.631411840060216 5.47109751862298 0.0
92 1 9.439887553780293 5.554369220688613 0.0 -5.233254865769594 -7.179224648634435 0.0
93 1 1.9995346374936434 3.8519041445046014 0.0 -3.6765789149191317 -1.478294288676607 0.0
94 1 15.291145376301344 13.629103776722811 0.0 13.956963692064019 5.5859751195290945 0.0
95 2 13.280677880830963 12.771470481696886 0.0 -9.350697189994296 -1.8751492847143802 0.0
96 2 3.757239989445205 1.0164598794094015 0.0 11.908175899456204 14.67033254235566 0.0
97 1 11.441339671651377 15.863350112015716 0.0 -7.772125615199838 -13.068018933016175 0.0
98 2 0.7329611451437692 7.938343629983272 0.0 3.3519334421947793 -0.03135124957233329 0.0
99 1 6.502481780681787 17.199534330354602 0.0 5.029706011082863 8.073282532447744 0.0
100 1 11.420200377319734 16.523906300929085 0.0 -10.36869190346459 0.4465585998678335 0.0
101 1 18.678187811816414 4.543019577334911 0.0 7.01214124089674 2.941888608506232 0.0
102 1 1.3574524940282222 17.173980884165452 0.0 18.48742581961625 -2.047828413679629 0.0
103 1 9.955177672999609 11.703475018693641 0.0 11.95456907504246 3.226542484344483 0.0
104 2 9.861666692814811 15.374310498606366 0.0 3.0725406132691915 0.6672763856489676 0.0
105 1 9.286454308867853 9.215418468300118 0.0 -8.069006242246672 -15.397033013438705 0.0
106 1 13.491773346792336 11.410722257277861 0.0 -5.3965827585991635 17.739809738311816 0.0
107 1 13.933647175538733 9.957073709601412 0.0 -9.528893545964973 -0.6571428618961435 0.0
108 2 4.5292464737909235 18.334566504460238 0.0 9.669928687056554 13.386787906051762 0.0
109 1 9.283805499496369 10.648240123009465 0.0 9.629759477923074 -6.576930826335924 0.0
110 2 19.290419520374403 11.125733873615172 0.0 -8.098574158121085 0.293869631880259 0.0
111 1 8.61884240911165 9.722747485741355 0.0 1.2863031201924202 -13.097249993877558 0.0
112 1 16.845662732117322 14.791320853535495 0.0 -9.524260905183523 21.852349800159363 0.0
113 1 8.281123627991326 3.5255610018460306 0.0 -1.643794036331232 29.449925364027905 0.0
114 1 5.265561708610116 7.975403976237874 0.0 8.972950343610641 -3.9703208438452147 0.0
115 1 18.07211264231066 15.811787175044696 0.0 3.486191103884424 -6.422736213545406 0.0
116 2 4.744417837075938 10.783455059873539 0.0 2.401952475765292 -12.4219870203005 0.0
117 2 8.13116593211515 12.2717967212617 0.0 5.196443935195771 -6.654146241072743 0.0
118 1 2.705198976428406 0.09831884851787329 0.0 -4.7517665345530995 16.01821693169829 0.0
119 1 9.74180118477375 16.18885343744909 0.0 -9.563281116507696 9.224789968803073 0.0
120 2 10.584974796009408 16.406340907008904 0.0 -5.506298389612789 6.050525785880309 0.0
121 2 8.518266268343085 14.85915163309423 0.0 -11.36338003454922 -1.2512952706250393 0.0
122 1 5.261548074252993 16.49379653107741 0.0 -12.619192337580053 8.969058391084866 0.0
123 2 16.26425568385425 18.872056100574984 0.0 -5.934712295668029 6.411557223157657 0.0
124 2 16.94475913753187 6.404856546761063 0.0 -4.6917803059181775 -1.930365522985873 0.0
125 2 18.683042684137423 3.4396212421706283 0.0 8.100805846243613 -12.19850268513228 0.0
126 2 12.008282178152367 1.4248646173816006 0.0 7.840122055552743 -0.24622824134861837 0.0
127 2 5.089749624846042 5.451230035769268 0.0 2.9578300338238646 6.773624403782819 0.0
128 2 4.5317500916074716 15.026928399020743 0.0 10.88907876355639 -7.908470037884574 0.0
129 2 3.1226111601837068 1.9878625367246652 0.0 6.419626451600082 -11.100016944251083 0.0
130 1 14.02271180143179 2.4892266535635 0.0 17.568989304988094 -15.49399468933823 0.0
131 1 16.170305140603098 6.321546061544115 0.0 -18.390994288473525 23.744798264745558 0.0
132 1 2.683038965630586 0.8742827237579457 0.0 2.2262561631737565 -13.47499509238469 0.0
133 2 13.68903778085056 0.5249869301384722 0.0 9.531696654516486 1.6016068535120176 0.0
134 2 18.56115109059292 18.96111928049612 0.0 -4.856632439311279 -0.3144146015546847 0.0
135 2 18.12834167084994 14.720018201712096 0.0 -6.040436307795613 -5.101861533440608 0.0
136 1 14.880051972526125 16.261367809638383 0.0 -10.340904584102661 -2.4683606215559664 0.0
137 2 10.974672616043755 19.3882174683946 0.0 11.765616793629297 7.361225443829985 0.0
138 1 13.530444393859614 3.039350287691044 0.0 16.87066581059913 5.056964411607728 0.0
139 1 14.741266665789333 9.997070046464959 0.0 -2.9099308462305316 8.62916662559873 0.0
140 2 11.976175946120216 5.751138010191368 0.0 -4.057823223311145 6.150546825602656 0.0
141 2 7.666249415416624 17.42924424172836 0.0 4.027324475661021 -5.5853205171529625 0.0
142 2 2.5041631374339124 9.34434761446274 0.0 -1.7161256893607109 2.7947685470729273 0.0
143 1 17.220065231404956 11.920455674079305 0.0 4.200676711879623 13.406737200286857 0.0
144 1 19.700007415679615 16.987456586098272 0.0 -2.462199788743111 -3.17476893725862 0.0
145 1 7.599744092217252 14.886096912713748 0.0 -10.114896436700793 11.88269401989653 0.0
146 2 0.09504711700421564 16.16991319163392 0.0 -9.310103515777909 -4.760628122108877 0.0
147 2 6.648989013079017 2.612717475813986 0.0 8.613756210925143 4.878306367433128 0.0
148 2 13.64899413058335 13.592999943537253 0.0 -0.04008157250286411 -12.730585003377863 0.0
149 2 12.389619564219766 3.372032641500138 0.0 11.362657839056286 11.004727001674837 0.0
150 2 1.7327291558899227 3.031893794498496 0.0 -10.308643066446793 4.272674799856544 0.0
151 2 0.037550377165338655 14.149655835051 0.0 8.5762808046468 -9.472198546061605 0.0
152 1 3.7574345467152948 18.821724544981414 0.0 -9.238641127822483 13.981500410143397 0.0
153 2 0.34277871409554533 9.215372072118047 0.0 9.00870646296344 -11.443239239230092 0.0
154 2 14.502083175052626 18.241869557302397 0.0 0.8163512361606186 0.8407764631693977 0.0
155 1 14.363918940331564 8.292539196845098 0.0 -10.997617683240625 -2.4306018620204632 0.0
156 1 19.6687750940397 2.533997140505963 0.0 -1.9669139850261552 -0.796872138476798 0.0
157 2 8.098240886781957 7.754939583374968 0.0 5.026830139762832 10.994975739304147 0.0
158 2 3.8551851028627033 7.4712325524021255 0.0 -2.6334076041357464 -13.064745423760082 0.0
159 1 14.366938395760515 8.916705857374339 0.0 2.625846206865366 -13.751833978911879 0.0
160 1 1.6366018645780018 12.601274764703414 0.0 8.30225021605618 -18.17920463794209 0.0
161 2 7.242755962068268 12.562061249543566 0.0 -1.2474230217256776 0.9724659683289978 0.0
162 1 6.02842691452055 8.25558362740724 0.0 -0.17246946085756648 3.640721274577756 0.0
163 2 11.385904932140846 3.0583356903220555 0.0 8.17194935516576 5.909640230346555 0.0
164 1 2.06676445591887 6.990851264851476 0.0 1.7720155841179754 -1.244750239833828 0.0
165 2 6.1026442750213015 19.592887482667383 0.0 -0.11710651876290215 6.074701941082418 0.0
166 1 13.894460663317494 10.776061879327328 0.0 9.842147293301375 -7.9176716317313325 0.0
167 2 8.81943303957657 6.232246901002916 0.0 -2.8963415568654773 6.063645537531369 0.0
168 1 8.547511864955256 10.81705826773169 0.0 3.6422744725152456 -0.6726221079294322 0.0
169 1 0.23068810724349237 18.66056196846423 0.0 7.588106941671616 8.392967209843045 0.0
170 1 17.415714109862034 0.24405185390468104 0.0 4.737083808697102 0.7531605351916806 0.0
171 1 4.744945731977479 1.8244596557196058 0.0 6.23664319594726 -3.821992754037307 0.0
172 1 1.7076409154244783 14.482137413997691 0.0 -10.565219234887282 0.5618308778139092 0.0
173 2 7.039897782383661 5.167850652344477 0.0 11.375482553181529 5.598113595333452 0.0
174 1 3.1159358745583066 18.9706299631707 0.0 9.21671824591276 8.290053127102814 0.0
175 2 8.403124372846907 15.967501214117036 0.0 -3.534516008633735 -3.8036478314867144 0.0
176 2 8.5478907177798 17.29849339974656 0.0 -3.5980497563285683 -8.494469606124316 0.0
177 1 14.917679449417246 19.39994330655182 0.0 19.383663027763884 -14.861656937105074 0.0
178 1 5.615282233726308 14.559391667921764 0.0 -14.095738486632586 -5.300454576367223 0.0
179 2 15.75473615928659 16.24452292631331 0.0 1.0540198892332635 3.842070634260727 0.0
180 2 11.979770418316187 11.673739740114135 0.0 -13.229138004924929 -1.759456667959171 0.0
181 1 18.428662543713056 1.6125420333361504 0.0 -3.4044387790271995 5.459270954890749 0.0
182 2 2.688882459337382 17.835754471447206 0.0 1.1026297396991118 9.369714407841288 0.0
183 1 15.422706788942332 8.946235321857618 0.0 5.656726336850803 2.7118922209498866 0.0
184 1 13.345335684468344 8.12400795150668 0.0 1.310428873309905 -11.038278688877329 0.0
185 1 9.815380545477314 6.17047811800755 0.0 10.666793897627276 14.563495822719515 0.0
186 1 2.5926173086618807 4.733464601617778 0.0 -1.1497228037839138 -9.426613406616623 0.0
187 1 12.31459089359313 8.462859699760962 0.0 -0.23055888720738738 -7.231628833236189 0.0
188 1 19.084797902016867 19.608982695625414 0.0 3.6485715678311292 -17.813746676033535 0.0
189 2 2.0454043260492933 16.175828933592456 0.0 -7.471254778269997 -0.029074491510203013 0.0
190 1 18.532106598092366 2.0644282653196613 0.0 4.974942879807798 -0.8389944584410458 0.0
191 2 6.203006039806306 13.032627221751984 0.0 1.8178088214733235 -7.560094940772833 0.0
192 2 9.37005115814055 3.112170843279217 0.0 -11.465310162774365 -2.3646348000399415 0.0
193 1 18.037953875414438 10.78474222069578 0.0 6.058473587063364 -15.083421304531768 0.0
194 1 1.979518470468695 6.01820518696095 0.0 2.8549369818928874 2.941931602217084 0.0
195 2 10.280426617292465 2.3528029419856886 0.0 -0.18263853033460412 7.440360497289484 0.0
196 1 17.454603441019565 9.442242959813555 0.0 -7.065694956056205 -1.7361324351004066 0.0
197 1 8.833634318250537 7.286185089915755 0.0 6.871330627938316 7.706365221728393 0.0
198 2 0.8871421648577126 11.750557915230706 0.0 3.160330953125464 0.7494891196252121 0.0
199 2 3.62141794606764 14.875725136696294 0.0 5.192836881121156 8.185875538118264 0.0
200 1 9.592736282110419 4.5549508475475635 0.0 12.003552682944312 -12.606399175153001 0.0
201 2 0.23786024698690766 6.242317635909753 0.0 2.5695196234788376 2.299829724846338 0.0
202 2 3.898964362733587 10.043170900355616 0.0 5.154305394876622 -8.188419181666191 0.0
203 2 12.150464278874738 18.106732317698718 0.0 -8.036527481843834 0.46938837706171355 0.0
204 1 19.0223560329041 14.457363129144229 0.0 -1.4259663620423233 4.389884324137928 0.0
205 2 18.40839132673486 0.17850263850237644 0.0 -0.972934123632558 0.4327943255847258 0.0
206 1 13.478766213041311 19.345181989122917 0.0 9.430614383862103 -0.06255689223251744 0.0
207 1 19.105743821289444 15.624308979110905 0.0 3.2354876897301272 -3.0723479391842967 0.0
208 2 3.2514017882424353 13.18272225969953 0.0 -12.640483447885366 6.035426994050127 0.0
209 1 18.885355542473622 12.554744749138695 0.0 8.729757755127423 17.085377826555483 0.0
210 1 5.044601526809092 3.146729840581196 0.0 7.819959125188642 3.710130645065134 0.0
211 1 10.8898253614624 9.953363963796114 0.0 1.9910957380516017 2.739636956957712 0.0
212 1 17.085836845317413 19.18445320845404 0.0 3.550865018428978 -5.803836338867423 0.0
213 2 4.519994472630487 8.795086420015364 0.0 0.8947852476263473 11.2581763607973 0.0
214 1 10.630475412334405 8.804331067400275 0.0 4.34895394619592 2.6904797593829155 0.0
215 1 17.136130997534718 5.6826452395468845 0.0 9.063988049278056 4.872228108984964 0.0
216 1 15.408226239790293 1.5433514670843254 0.0 12.781558363352575 -14.835699133716863 0.0
217 1 0.053114213432043866 10.293496991013527 0.0 3.7469214330962486 -9.326264343898885 0.0
218 1 15.502133425748701 15.536129054748017 0.0 -7.04874326981048 -1.1199597573147018 0.0
219 1 7.165379581415962 15.206953072641264 0.0 17.276846856169882 8.498423962378082 0.0
220 1 6.562716106643752 13.894764438211404 0.0 11.729872638028207 14.831214778733983 0.0
221 2 7.7044959415730085 4.039547718364955 0.0 -9.028765291718864 19.804530663923458 0.0
222 2 14.99115655233733 11.072197516041825 0.0 -4.407816745954641 -1.4081843154469402 0.0
223 1 8.897430582389871 11.613378237779965 0.0 11.014889019735598 -7.422407049258593 0.0
224 1 3.042408615007755 16.6276647914987 0.0 4.6014096220378295 -3.888464903608369 0.0
225 1 11.736936919833536 14.097875424619355 0.0 7.724668348028325 -4.2657275899749445 0.0
226 1 0.9748906052045426 4.4176059780552155 0.0 0.11273353813938726 -3.7507394214259624 0.0
227 1 1.519215001820719 5.0728759327975 0.0 3.4102866390750446 18.001898108641118 0.0
228 1 2.7494659769010954 3.405834060444438 0.0 -11.755636491471776 1.95068321686035 0.0
229 2 12.77773320546206 4.897087362533979 0.0 0.2178078720618224 0.6425596335456757 0.0
230 1 2.2093466306693874 11.988808637245274 0.0 -5.136397419239372 -3.610132832514702 0.0
231 1 3.863811481060255 5.1246383816225185 0.0 -16.398213617751296 -11.8169790492286 0.0
232 2 18.76917203296047 16.746356290333274 0.0 -6.6654609753284095 0.9220340213294838 0.0
233 2 12.142706595956382 15.151344550844767 0.0 5.831387116556197 -8.362009506498516 0.0
234 1 11.691836380570706 17.47021066564507 0.0 -6.862819637108301 12.60751662432286 0.0
235 1 4.8450292820737495 1.246588074421805 0.0 4.549824038135685 2.6351055308484055 0.0
236 1 17.498728977469522 1.6001992935643101 0.0 -9.094943471701498 18.287235914282572 0.0
237 2 3.8612709139053125 2.855657940751108 0.0 -10.184047223045997 -3.2562718875617565 0.0
238 2 8.286597023073622 13.82867853301252 0.0 -3.885361508964757 -5.775263084656254 0.0
239 1 6.340311714496749 3.3593673175326257 0.0 8.807205702592064 7.877297685426258 0.0
240 1 9.038260562294841 13.07221437350124 0.0 3.418135799053721 -7.018466601626553 0.0
241 1 16.726407768309137 9.851918416750676 0.0 -4.769555407342161 -7.263205373681345 0.0
242 2 3.2451128307224217 5.863339226719894 0.0 -1.6402192990099638 8.907464103892238 0.0
243 1 19.68448667638314 0.944806378833505 0.0 1.2654983309011314 19.1066304532313 0.0
244 2 10.180976287569203 18.315328931361993 0.0 0.4149779552513577 2.035194643475905 0.0
245 2 14.878025492803678 0.7691447584900771 0.0 3.268710069518719 8.792533892717437 0.0
246 2 19.279174183953568 6.889180209540375 0.0 0.8467372710761857 3.4516494602503283 0.0
247 1 9.357499986416771 12.402326324805935 0.0 -18.152602793808438 12.875812453952282 0.0
248 2 13.678232973205947 16.485733422567378 0.0 -7.212662164273894 -8.449039517721578 0.0
249 2 5.697774717002844 1.6565179945263653 0.0 8.204030970376449 0.9849076366035201 0.0
250 2 17.14081217567641 17.62961583106971 0.0 -15.063957870303817 -0.6952768895947351 0.0
251 1 14.871798488724115 13.163396509978655 0.0 -6.487186585833369 -6.139540698926821 0.0
252 2 17.894340034260463 6.030938728869279 0.0 12.78344833520647 -4.475468347991306 0.0
253 1 1.9622594248844893 18.278736578729333 0.0 -6.724585678572475 -15.38726855219653 0.0
254 1 6.457482324753834 16.476888585043604 0.0 5.976688873166187 -11.970662365088922 0.0
255 1 18.66816280442947 8.599041253267943 0.0 -5.143219121302749 -2.5278083288997673 0.0
256 2 1.0977762716323267 0.5463175135648444 0.0 -4.785250635398724 -0.6902212672151425 0.0
257 1 15.687476062615245 0.6437447783220817 0.0 3.2286589655659546 -0.9836570502389569 0.0
258 2 5.6073345415095135 11.453569495317456 0.0 -0.14042630658453548 4.055280749780835 0.0
259 2 0.9976854604163404 19.548711294179114 0.0 2.7187414278734927 -5.126683794492705 0.0
260 2 12.170726492725652 10.184649981721765 0.0 -8.225278762733426 -7.314984078531822 0.0
261 2 18.29242308765682 17.871094755270512 0.0 -1.8538112070118462 -7.504203658980069 0.0
262 1 13.364186007707497 9.855772133770843 0.0 7.766487401818257 1.7945186095148034 0.0
263 2 12.083687254941209 7.0288425288851215 0.0 -4.5742566053510485 4.890820603339613 0.0
264 2 6.880848050100574 19.64649705546982 0.0 1.8726483626173158 -2.315997238590232 0.0
265 1 2.4229219607361054 2.515809906672127 0.0 -0.8148276485519264 4.711418463512256 0.0
266 2 10.532184960104653 0.545788007047974 0.0 -0.8600504999540391 2.9480469856099725 0.0
267 2 5.574995463180386 0.5765021053827752 0.0 -3.6285482094081516 5.443187049710288 0.0
268 1 2.283438607947574 1.4854997097940716 0.0 0.8845014370527511 -19.947879338549814 0.0
269 2 6.9327941005156415 1.5718449732569377 0.0 -1.507231268942949 3.9629422920895703 0.0
270 2 16.635135494838995 7.947653410394559 0.0 4.04518508452811 -2.3957867628117944 0.0
271 2 12.797238041743551 17.53699612689139 0.0 -7.157617979920898 -5.5369891620833736 0.0
272 1 19.472903837571163 18.38309075091083 0.0 2.1036738962778183 10.078561237423738 0.0
273 2 13.950139773855192 12.083558494309141 0.0 5.15116842074337 1.1498205443288052 0.0
274 2 13.968509790895515 3.6824878181795135 0.0 2.041952141496458 6.6678528650828355 0.0
275 1 17.05272604850529 15.451975307639541 0.0 0.6662829458840717 17.59021601204699 0.0
276 1 11.29090573027032 17.752723370620092 0.0 -32.70377994892643 -13.454521668658645 0.0
277 1 5.554130351568314 12.531082844582613 0.0 -2.3774178145830245 15.236947814152552 0.0
278 2 5.589216412573995 17.52923948262219 0.0 -6.764135021943508 2.0894897496445894 0.0
279 1 2.2363622815851234 4.287315092211022 0.0 -3.603915238913409 -1.5123183206621569 0.0
280 2 7.489162396199879 10.498835736968843 0.0 2.934933542738822 12.470360711952768 0.0
281 2 5.667374679501171 4.669375223603878 0.0 -1.9859297047928328 0.17426454872407768 0.0
282 1 13.565815634378625 4.6210772416864945 0.0 -2.2466993766364944 11.824132018652799 0.0
283 2 0.4525586682698732 1.5103317560267748 0.0 4.3744462136649895 2.5046462754875285 0.0
284 2 3.710882306627347 15.913113922364149 0.0 1.7736697480699732 -7.324808906875623 0.0
285 2 17.44289919254766 12.94015554460712 0.0 -2.284315989488391 2.1622519583636164 0.0
286 2 1.4125803191361326 15.463121406914967 0.0 -3.5081997146436033 -8.43737182608251 0.0
287 1 11.316003068862205 11.321731090174628 0.0 6.947307591435685 5.820842052184147 0.0
288 1 17.1818948102271 16.02549726564746 0.0 4.929689940723431 0.8405462872519094 0.0
289 1 10.068027439595042 8.710981761358301 0.0 7.942722377643608 -21.0191993859023 0.0
290 1 2.445632307408313 6.405873310739385 0.0 -8.260855105978907 -4.602511299392263 0.0
291 1 9.500696610725974 8.590368161118622 0.0 -14.850753925008913 4.942652346326326 0.0
292 2 4.513045359100482 19.24464359919829 0.0 -6.603619833810262 5.271932841908146 0.0
293 1 11.186299008733505 14.984887572969035 0.0 -1.2953315945678865 -0.6115005097968154 0.0
294 1 9.343799464032085 0.07392976434043574 0.0 3.8069256367073274 5.223942126362295 0.0
295 1 7.274543757973788 9.56392661491093 0.0 -6.552773541003901 5.566380396083223 0.0
296 1 16.799879432296137 16.247323049888077 0.0 -5.184047714454109 12.2798371946038 0.0
297 1 17.4889815415987 4.676156898932622 0.0 -10.450884399167366 -8.370201543809788 0.0
298 1 11.88205137141555 16.50605096487309 0.0 -17.690787099651583 4.221788154852388 0.0
299 2 15.971483722532017 14.476391560064256 0.0 1.1002978287371272 -2.663100951517592 0.0
300 2 14.847586264918617 12.076390515304752 0.0 2.7388763263856246 3.7395026532198337 0.0
301 2 7.6254868603634565 11.350129064669654 0.0 -1.0772266543177136 -7.450454568568222 0.0
302 2 1.1158764244666313 16.457956559778214 0.0 -13.369502344738343 3.1013995445933547 0.0
303 2 8.154509670605242 18.472600816325627 0.0 3.106856960424365 8.72218207899753 0.0
304 2 14.083236516393104 14.424028123130062 0.0 1.965638407698635 -2.667906851312737 0.0
305 2 1.6370632327596926 8.400351026595203 0.0 -9.533395508556236 14.048370883415533 0.0
306 2 19.502985196153166 5.198900950595436 0.0 -15.085927839490072 0.9133705695308195 0.0
307 2 13.096097039907214 14.371133582138429 0.0 4.766269095550209 -2.9450419063013022 0.0
308 1 6.453388115501076 14.963983444533351 0.0 -18.38987061655575 -12.662923078037805 0.0
309 2 18.200022469864646 11.549266859825819 0.0 1.196091434968222 2.3095856026160484 0.0
310 1 7.219846106571799 16.753693108705466 0.0 -2.6528531336985366 -4.351875216666068 0.0
311 2 11.883793182000002 19.173207291356167 0.0 7.166854149845256 -0.7270989156345071 0.0
312 1 18.07054427525903 8.702694527708294 0.0 17.466578785149053 -1.7125327380898978 0.0
313 1 17.49792789057405 19.42990919831448 0.0 6.508565355466648 5.5174274826185945 0.0
314 2 18.365270257402337 13.559634475323868 0.0 -4.992539200458028 -13.395515400493206 0.0
315 2 3.9789872394994372 12.673462643951572 0.0 -2.5390998977379784 9.94036865278685 0.0
316 1 0.05665969155689402 19.3168638664156 0.0 8.790065153605005 -5.5080065373357625 0.0
317 2 8.202286780362519 6.808078457588326 0.0 8.513346605367122 2.598710779747208 0.0
318 2 0.9855722519734711 10.219093860559518 0.0 14.495368217421882 1.750910266162744 0.0
319 1 11.654390176118257 8.246276569605445 0.0 -10.683251297596762 -11.217051914583397 0.0
320 2 16.563531727798814 13.507773956085382 0.0 2.405654410577437 9.9367260051106 0.0
321 1 1.8839221493512064 11.63269614929582 0.0 -5.985539347583474 -7.3672055079681416 0.0
322 1 1.0925632534633682 6.155822683117102 0.0 10.415299308650752 -15.034605804667127 0.0
323 1 6.268151283688213 18.159158392718535 0.0 -16.29662581217214 -3.7788120400927636 0.0
324 2 8.785153958304628 4.319885588276346 0.0 4.344216690837859 -7.935620296572614 0.0
325 1 12.917360637945524 19.01272346653527 0.0 6.796937544734597 7.232262340359772 0.0
326 1 16.33700658301499 7.066769481822483 0.0 9.565663567749882 4.603266902384945 0.0
327 2 0.42089982034207213 3.476212584061589 0.0 -0.23083548574598314 -4.805720067957867 0.0
328 1 13.45209194482969 8.681924089217398 0.0 12.022348495021154 -18.917821675503816 0.0
329 1 10.175128784189232 13.955930813582937 0.0 1.9711825692991551 -1.5383348227321725 0.0
330 2 7.775667273130214 5.874302916898678 0.0 3.8661279510176723 12.300464426316546 0.0
331 2 6.872717419055279 4.340636718052851 0.0 4.810138313657036 -7.582397660325311 0.0
332 2 6.880935534649029 6.056496817298376 0.0 0.2811536353686919 -0.8966532983839697 0.0
333 1 6.490138422733568 18.635607588313476 0.0 9.746392493606697 -10.236506193179453 0.0
334 1 16.430934788193763 1.2260124447549112 0.0 11.59262557912049 11.735294279837786 0.0
335 1 8.236499775666713 9.374992898674524 0.0 -1.8433162784591466 2.7334238828269037 0.0
336 1 15.336709664391806 8.039766122949004 0.0 0.8058008637881445 5.978399019641614 0.0
337 2 12.598502755136392 2.310255649874733 0.0 -0.0313039442277296 -0.5164894354941573 0.0