ITEM: TIMESTEP
0
ITEM: NUMBER OF ATOMS
400
ITEM: BOX BOUNDS xy xz yz pp pp pp
0.0 19.7609 0.0
0.0 19.7609 0.0
0.0 10.0 0.0
ITEM: ATOMS id type x y z vx vy vz
1 1 6.4775534488003315 11.317811308259195 0.0 3.9681767380031836 7.905833506410994 0.0
2 2 15.233971172046433 18.75662866565042 0.0 -9.396035396684264 2.8284914273550146 0.0
3 1 7.7802671683847615 12.971355249984374 0.0 -3.8817110590380266 -7.3605163900177 0.0
4 1 19.378142803579898 0.9982707042002065 0.0 14.227239387405454 -2.5702300669886995 0.0
5 1 4.003614496297569 14.443889166207464 0.0 -4.068695881077548 -11.863214316735165 0.0
6 2 9.219371439898165 10.935825920294079 0.0 -0.6154259887214133 -8.967484061697947 0.0
7 2 10.793272580311227 2.3079620354190564 0.0 0.5433361732087976 8.537278494328266 0.0
8 1 4.373206997700458 7.13219496460827 0.0 6.9710343954808325 8.554315850885404 0.0
9 2 15.204071550149315 19.73777838815253 0.0 -6.635029428368061 -9.596761880625731 0.0
10 1 2.64857072384509 4.3188200302359725 0.0 -2.370880383250215 -7.205940213239179 0.0
11 2 14.60002128045534 2.0985588418864687 0.0 5.7348522019257135 -5.631389245769892 0.0
12 1 5.759990302347789 1.8670555673156397 0.0 -12.940494725350849 -0.07358013914740186 0.0
13 2 11.744179945887378 14.410990478483127 0.0 -2.2911594930938093 -1.9912459038551509 0.0
14 2 17.727017333991895 5.861211660053062 0.0 -2.1542343027523447 4.112671139868035 0.0
15 2 13.714468284248865 12.851776882771938 0.0 10.210068495269319 3.962261634728215 0.0
16 1 15.04799168718772 12.580770317579637 0.0 -4.987191485090671 0.29832962877550123 0.0
17 1 7.033746261644869 4.276585215888617 0.0 0.2804654878555428 22.81972542654335 0.0
18 2 19.151290158469433 10.964204811017721 0.0 -2.53855538101274 -4.403116109627149 0.0
19 1 3.6883983217535987 0.35106606048715566 0.0 4.958311331356304 1.3017274490284523 0.0
20 1 0.7042862492684702 5.233498769393342 0.0 -12.442618143858347 -3.909005177867366 0.0
21 1 0.17375400329064908 0.7814219469949915 0.0 0.9088126997253747 -7.834245774624701 0.0
22 2 14.377177750812299 0.7157236430997669 0.0 -5.1236610850860815 2.2854443451725897 0.0
23 1 5.499393607181044 8.650204723345988 0.0 2.246519502608975 -2.290361677492692 0.0
24 1 0.7444781727619695 16.650757500479273 0.0 -3.545152635938305 6.346096332846527 0.0
25 1 9.396148520849513 16.727067101494143 0.0 -10.417501026233019 9.708521684458974 0.0
26 1 2.9161515296736695 18.05603545968706 0.0 -2.9324100428284003 -4.581853552567422 0.0
27 1 7.130584822645981 14.483130776790771 0.0 -11.975988436170319 1.3522297239977787 0.0
28 1 16.129915290718106 16.161905867536596 0.0 20.512987938535016 5.615661271812657 0.0
29 2 11.867550037708776 4.4006695969775365 0.0 -4.47284768793175 -1.5587708965452303 0.0
30 1 18.11724792712755 7.1732343584255345 0.0 -3.7932452186361676 -17.524371675298774 0.0
31 1 7.865243220397058 19.115995767817203 0.0 1.4286894121938656 -16.47513931884238 0.0
32 2 16.72871149990349 9.725518776185837 0.0 -0.2099724288395834 9.448065472830471 0.0
33 1 19.05597989873555 15.010693728294907 0.0 8.878851483813508 19.97687668658981 0.0
34 1 0.11734725533088462 18.912582334377266 0.0 -1.4177607396891536 10.29685761539618 0.0
35 1 11.670550523652368 15.417289162562197 0.0 -13.661582920988357 1.9587479835679764 0.0
36 2 16.93004218871566 13.394391376703924 0.0 2.6556524696642656 8.35512324025121 0.0
37 1 7.724634487491125 11.513894219816997 0.0 -2.911798957202255 -5.9263907586739535 0.0
38 2 8.605597890085843 8.99684479722874 0.0 17.264227194420865 12.797538625311653 0.0
39 2 4.706346639836155 18.544197101168216 0.0 -5.63287296325379 -14.69144160618266 0.0
40 1 17.39484434998393 4.708515228038108 0.0 -6.093432119056224 -7.2503837853184425 0.0
41 2 7.2516390851977395 16.34395405257333 0.0 4.4644350926128755 -7.706216537310713 0.0
42 1 12.529341761372885 0.6569589398497597 0.0 -6.889780508425497 6.3288188500509035 0.0
43 1 18.902870947221167 2.4860810499523915 0.0 -9.416005066322436 6.132123590367407 0.0
44 2 1.916208491611427 1.7014296934942619 0.0 -11.67302945115468 1.2837251424985228 0.0
45 1 6.117417159312088 10.414689421658839 0.0 2.906518114093133 -0.26490076522617784 0.0
46 1 16.603449042102106 8.879610615967364 0.0 -14.721568171424114 1.9537025408083595 0.0
47 2 2.832285331680092 9.923319942858043 0.0 4.4262509018627645 1.039147254466754 0.0
48 2 18.391190979739857 19.13990556273658 0.0 3.4942134425696563 -3.3088001822011166 0.0
49 1 15.486307826391755 8.350718843697628 0.0 -0.5798461070498088 -14.244882577456197 0.0
50 2 19.719032891415125 12.772327773443044 0.0 -4.5620901023344045 7.530218246399694 0.0
51 1 10.103909406998964 8.10138785794822 0.0 6.436419604632387 1.3580479878068328 0.0
52 2 8.564887844000797 14.63803080456557 0.0 -5.381282759944 -5.349009612364963 0.0
53 2 1.3008769206541861 2.3705117180706745 0.0 4.1302313275830045 -6.900603205207415 0.0
54 1 19.469350221523516 18.703257984058606 0.0 -11.074089576996338 2.1618708056291926 0.0
55 1 1.4758635022177167 6.204038930638781 0.0 8.549750690337524 2.0271027503707297 0.0
56 1 12.31639758437811 1.2119959098018518 0.0 -6.408949469631339 8.65255336557042 0.0
57 1 17.758214904183447 10.486065266762878 0.0 -10.035538241753619 17.266552226681807 0.0
58 2 15.822679169341088 0.7684860375336786 0.0 -11.033581889425186 -0.7024082213102938 0.0
59 2 12.76354718164411 13.039757606238046 0.0 -8.410828993175297 0.9777872427140714 0.0
60 1 6.712474149865833 10.687807856409085 0.0 -1.73956323828624 -3.024262433178032 0.0
61 2 2.00137045955307 15.369459164134378 0.0 -8.62089685020403 -10.509794459726349 0.0
62 1 19.159976144850386 4.090681418688843 0.0 8.815237177966736 -4.837696149795955 0.0
63 1 10.328426894572909 12.487375277749527 0.0 -0.7758336424198928 -6.6093191824800614 0.0
64 2 13.739706292150945 3.570560518039365 0.0 3.1328462012282627 -6.088812693802369 0.0
65 1 5.560422446450923 4.182389495856349 0.0 3.583043716282656 2.5947693398462675 0.0
66 2 10.159681549061295 10.734256783478227 0.0 2.809454182532754 -0.9766035165110383 0.0
67 1 16.579806637992622 8.239057113506004 0.0 -11.958868130145122 8.675843963225008 0.0
68 2 9.0385247524573 5.078357826764469 0.0 3.4561531862148125 -9.579131295386683 0.0
69 2 16.044132268206877 7.315975714361714 0.0 0.49284810356036424 2.956914489022159 0.0
70 1 19.216708712504037 8.65229531529779 0.0 14.851714312627289 5.120265790554992 0.0
71 1 16.516965578015533 5.007661543430849 0.0 -18.92526449769027 7.966877686404432 0.0
72 1 1.210181234933791 3.787258154231915 0.0 -2.4936454805470794 7.213746330151672 0.0
73 1 16.48878979490008 5.637991190513818 0.0 -18.170924880381957 -4.937079638289462 0.0
74 1 1.941944789953799 11.376154846245118 0.0 4.088929350567168 1.0515270103607726 0.0
75 2 14.249074165844815 8.687081763631257 0.0 -11.807231741447454 -5.423114742547277 0.0
76 1 8.53859769587289 2.133678286756532 0.0 0.07107486113752763 0.7114459384391084 0.0
77 1 7.681423760206616 8.541418077941897 0.0 -3.1049730707566114 -1.0905285636059043 0.0
78 2 5.457990036072615 19.282231777938758 0.0 4.79915735718968 -9.418344739878373 0.0
79 1 14.866823732431854 8.129660315449094 0.0 -14.771265207469268 -3.3527965334880143 0.0
80 2 4.247832977752635 8.566894991234621 0.0 -1.3574605044665071 3.575253182214551 0.0
81 1 18.023789189340427 14.982657883211186 0.0 -1.2769087134538952 -4.90455881831518 0.0
82 2 12.77479854571971 19.55510048244452 0.0 -0.914185723206847 3.1726517845791946 0.0
83 1 19.180471427030234 8.167274599308238 0.0 6.821364377828346 1.153019386068208 0.0
84 2 4.902106399357952 14.164020903010876 0.0 -3.7454125570265777 -11.881156456766126 0.0
85 1 2.4252761903907647 11.551747489732874 0.0 10.916811489021388 6.689988445096512 0.0
86 1 11.616285125988053 1.9590332100551906 0.0 -1.4423485199287145 -8.688799402877164 0.0
87 1 0.45197191482652965 16.086338117448477 0.0 -3.913968148108555 -14.265968192114588 0.0
88 2 3.3952347226016375 15.40319215465038 0.0 6.162644224946958 4.707100899738506 0.0
89 1 12.985100992898635 13.81373395549463 0.0 5.257110981513901 3.3588112174952407 0.0
90 2 16.748117053286503 18.93989862859981 0.0 8.019010264249165 2.284607647967931 0.0
91 2 4.05653293609597 9.819718454543551 0.0 3.6639469057016707 -5.0599522665682475 0.0
92 1 17.465267320836663 15.62886800496564 0.0 3.5232906796234893 1.9603840007334195 0.0
93 1 6.095208859402943 13.507810598495437 0.0 -14.602953546561984 1.257787660731059 0.0
94 1 14.130475166933039 16.87070144022776 0.0 -4.758281412547955 4.004887718056394 0.0
95 2 18.282304966438662 1.5406795873710928 0.0 4.876765899297907 19.99383543067188 0.0
96 2 13.476644633181435 17.99302470141668 0.0 -1.1729113614910296 11.157662406203404 0.0
97 1 1.3541317678424645 19.2459732880719 0.0 -2.6408726092818733 -17.170070251616515 0.0
98 2 15.742711932922372 3.756859390286394 0.0 -3.836971210530062 -6.244633831443783 0.0
99 1 16.256753312230042 18.240059524730686 0.0 -4.373136241514781 4.934549537857062 0.0
100 1 5.012448589980204 6.632726835036413 0.0 -2.162195793835113 0.993936064877188 0.0
101 1 10.40778016369952 5.340298771327731 0.0 -3.9651878075566294 -4.707639203104778 0.0
102 1 11.22768140111985 16.489549700108746 0.0 10.815200314584729 -4.755136276112393 0.0
103 1 13.74349614749328 0.17721220529162574 0.0 -1.5556391889259267 -5.90506284771401 0.0
104 2 15.032163381197726 16.47097353714987 0.0 1.1881180710057122 -2.3980430721808146 0.0
105 1 5.8568876156968495 7.0482036439217435 0.0 6.015099966466876 17.081559404347345 0.0
106 1 3.05920210256231 4.560717338259048 0.0 7.710855802075465 2.605318194467774 0.0
107 1 12.692303709429703 18.739486703007596 0.0 8.104268234767398 0.3416480588114409 0.0
108 2 14.505225274687888 13.33552476355248 0.0 -2.0982553661964003 3.5185646886104287 0.0
109 1 16.6567148795519 18.007559623692554 0.0 5.967170877743347 -9.396669682658446 0.0
110 2 15.637119651869645 2.9102295557369824 0.0 9.860526687883786 -3.913720504591544 0.0
111 1 8.533716022319435 0.6967773727718599 0.0 -5.310820853042021 1.0770211607875368 0.0
112 1 10.971100964234747 7.242335696390111 0.0 -8.18523848492955 7.251585552328275 0.0
113 1 6.763374622662934 4.613432356374997 0.0 9.150748708942135 -2.0440979041426477 0.0
114 1 0.10004533721980209 0.1399914649807256 0.0 6.71128344998067 -5.115985142879168 0.0
115 1 2.5913448696699097 10.745437789332724 0.0 0.7595619615358139 8.025120969582407 0.0
116 2 7.982164539917305 7.5014542918804255 0.0 -1.4799871672325193 3.567561329861506 0.0
117 2 7.745801664781536 9.298959148701929 0.0 4.3900093233256205 -9.387251838771693 0.0
118 1 18.52693893070472 9.222249902883304 0.0 1.379511568138958 -10.239145724554808 0.0
119 1 6.454734776676458 13.14334851636849 0.0 -4.007701191765922 22.513141316007474 0.0
120 2 13.133346831944937 7.738421386813608 0.0 -13.809140465846935 3.6898106905193204 0.0
121 2 9.06226416326243 12.310812204857534 0.0 -10.18252341909721 0.28470334456873536 0.0
122 1 13.186798535040355 1.1792336506902035 0.0 -3.5870916266589834 6.616902668485277 0.0
123 2 6.0442560202387 14.700531338322989 0.0 -9.956443406065844 -2.696166876153877 0.0
124 2 5.2117269577448395 7.536600895425969 0.0 2.1868898567140365 -8.502005850169997 0.0
125 2 6.72547518962122 5.521502755499134 0.0 1.7747811738474317 -2.3407549988518794 0.0
126 2 9.31264632328902 2.8644566335552892 0.0 4.953341662882554 5.150208008458765 0.0
127 2 16.17636599746925 6.44990814391652 0.0 -10.53856922360189 -5.052892082323124 0.0
128 2 12.759320086719875 14.772190961878584 0.0 -7.278070351801778 -2.2400908322981237 0.0
129 2 11.080537176627187 10.524084276154028 0.0 5.021839436376232 8.312054286789271 0.0
130 1 0.6386590151876442 1.047737905524451 0.0 9.62532442896226 -16.31277535623847 0.0
131 1 0.9235524358196798 9.976434140194296 0.0 -5.239645353503249 7.589303289121868 0.0
132 1 9.98760836104093 4.94104357788127 0.0 9.276816308882504 3.0334657225111723 0.0
133 2 3.145037039495177 8.5845461406691 0.0 7.423645849209922 -0.663324370141828 0.0
134 2 11.100527055019757 1.1451917604982513 0.0 -10.198786036730727 -4.013971131718223 0.0
135 2 17.833013938477634 3.9877239825897135 0.0 -0.37378604336023113 13.323424393897579 0.0
136 1 10.035512052831743 9.395583112541512 0.0 8.609368816676838 3.3438128985700626 0.0
137 2 1.9858171252786436 9.732341763278118 0.0 -6.476908018413861 -5.3080687632621775 0.0
138 1 3.858194749822637 18.38286976700988 0.0 -5.350996723715877 5.73194699598131 0.0
139 1 19.18177956842617 5.541482582799895 0.0 11.271458047285128 -13.352569445106973 0.0
140 2 15.909019770627 10.494272450111174 0.0 -5.943623700105036 3.949415726283621 0.0
141 2 8.41223482650052 4.515869896932801 0.0 -0.8329058229048603 8.060496517872895 0.0
142 2 6.342310966094519 18.159734944124985 0.0 -1.824216129155521 -8.24334578535007 0.0
143 1 7.999859027659527 0.4110735039619077 0.0 -1.4478967385037735 -5.520529541121274 0.0
144 1 14.145321281983804 14.973695088268459 0.0 -10.783541657643697 13.211479141678542 0.0
145 1 0.5999769180331689 18.59437732657794 0.0 -5.579453699647159 -5.277858680088124 0.0
146 2 10.198439833873051 14.465395330412823 0.0 15.266061784928679 -1.2948572408037344 0.0
147 2 12.066890066571577 11.298210151208478 0.0 11.439215504783665 -1.3442444227943127 0.0
148 2 7.728047054371633 14.029240900760946 0.0 -5.781802415901015 -4.56852449467047 0.0
149 2 16.380382059130614 17.053038171217874 0.0 7.237764129733535 -1.050563931771902 0.0
150 2 19.05773182551601 17.84001533812763 0.0 -2.117912993671706 8.384544967363393 0.0
151 2 1.0644568949335613 7.761807052720922 0.0 1.831626386350713 10.663901377837531 0.0
152 1 0.3354129395698156 8.82815246429269 0.0 -3.3776605845917236 -2.2110232475641247 0.0
153 2 12.277768428624055 7.73085777936801 0.0 -4.561121162957045 8.017541168805456 0.0
154 2 1.5759951655510718 12.401077244079637 0.0 -5.280891469348195 -2.0938759379804193 0.0
155 1 2.904475362510861 13.914391850251429 0.0 2.765158864921695 -7.038030876167199 0.0
156 1 8.115156385634796 11.381356903470872 0.0 6.7253418838456085 1.1869724125645171 0.0
157 2 15.289546232506597 6.834780848822442 0.0 -11.240829591493844 -1.367565870174897 0.0
158 2 5.471970210595941 17.646047722980487 0.0 -5.133692937988511 3.519188645994981 0.0
159 1 6.918974698027174 19.688308410469375 0.0 -19.323761258493047 -6.804812043781151 0.0
160 1 14.389063933679806 17.306519483380406 0.0 0.9772729940718706 4.888933209295782 0.0
161 2 14.691927745317013 15.491351792960854 0.0 3.6026699635785624 0.31484940380458165 0.0
162 1 9.856135496704804 4.365652436187668 0.0 0.5031485060938251 10.985753423897568 0.0
163 2 7.063515061234912 1.9333790692602204 0.0 0.1210413633771788 11.219806359070681 0.0
164 1 14.671328119178312 12.035219039933379 0.0 -3.773868894144268 5.599613653270184 0.0
165 2 9.791211422028123 7.340730973044265 0.0 4.3984454824412484 8.544829092230884 0.0
166 1 3.0408661812102857 14.687295631127594 0.0 -5.095195947822561 -3.2961095681317842 0.0
167 2 15.125855263469075 5.831865647705549 0.0 -2.1481038251069613 2.731601882978817 0.0
168 1 4.850020247030145 15.020321451284767 0.0 3.880094886313399 -5.990691719012312 0.0
169 1 18.16457566614382 14.262315655337067 0.0 7.5631071626531465 5.254837208949515 0.0
170 1 6.449659146320091 2.5771055152065983 0.0 -5.829950874623026 4.437460048742975 0.0
171 1 3.852399679688927 11.651509652082401 0.0 -0.3599255134093042 1.1402712955054424 0.0
172 1 10.78147694435678 8.812517116970836 0.0 -3.2623215582310774 -0.36980592780103405 0.0
173 2 19.632522269585525 3.2944130023535876 0.0 -4.486843633226621 1.150195450429199 0.0
174 1 3.5097370985287686 14.034631067773951 0.0 8.534824357051408 -10.387691792722652 0.0
175 2 0.510767574447159 14.74502218679693 0.0 11.757448321591186 0.43870347458498854 0.0
176 2 8.572021852759303 10.217949293052982 0.0 4.545550017444816 -4.242856035967592 0.0
177 1 5.539287540259708 10.544908569759896 0.0 13.709512717245106 8.489545579470851 0.0
178 1 13.390408579820223 15.569847072907486 0.0 12.553469970323437 14.994102448261083 0.0
179 2 9.778977259387416 1.7893013618996585 0.0 -10.10846668593812 5.319109448037133 0.0
180 2 12.034748455655548 17.14239824804335 0.0 7.349220766109216 1.0546218361284991 0.0
181 1 16.445572527222293 14.110177202444557 0.0 4.660187211388154 -8.535476660559107 0.0
182 2 10.398454647079003 6.637835305817034 0.0 0.2659439230994186 4.197207299670321 0.0
183 1 2.06059911121218 13.087792912809935 0.0 -3.8885128301154572 -4.577804975595583 0.0
184 1 4.65413366238856 19.45282265242125 0.0 -6.9259360385142275 -0.29349482068116234 0.0
185 1 3.3329779736713148 0.7189075672787589 0.0 0.4602462384096751 -2.8173602567952694 0.0
186 1 12.894652545542737 8.898706475231476 0.0 3.175166015219297 -0.2975300460910557 0.0
187 1 2.881250241406944 0.08405864999524061 0.0 -3.0904060688344184 1.7341121507202486 0.0
188 1 18.368633449974677 10.949230401011748 0.0 -4.3040390774649655 -5.109568106859041 0.0
189 2 1.6418640137494063 13.777175108583307 0.0 11.759812945829307 -3.960014074090523 0.0
190 1 19.00475770733723 16.86381328364803 0.0 1.8767513143136596 -12.714869716231574 0.0
191 2 1.5317664836318217 10.493119958924048 0.0 4.9919708696776395 -0.07005244981798954 0.0
192 2 10.864616073336792 11.411706421857277 0.0 6.024841017758464 -0.6125750705869079 0.0
193 1 7.178332777483442 11.338927130513294 0.0 1.652335607024391 11.212148067427114 0.0
194 1 8.685420126401791 6.906291211017784 0.0 -4.18717955894244 -8.294995656783119 0.0
195 2 0.710462882382903 3.0846775703042715 0.0 -5.748648013971236 -7.143653559267795 0.0
196 1 13.809991737680384 5.163542463160627 0.0 3.9746902684165684 3.8440451678027867 0.0
197 1 2.309872290781935 12.577263059415253 0.0 -5.431677142023961 -1.0797296768518414 0.0
198 2 5.714633438977697 12.508466200302673 0.0 -3.9777536795544295 -5.200030932062691 0.0
199 2 4.362197180276068 5.530373482539433 0.0 5.912581894347382 -0.741450796285753 0.0
200 1 9.727314585722624 13.842131522038816 0.0 -1.4050597081609675 12.19077190160656 0.0
201 2 10.330197769963949 15.342623753608214 0.0 -3.0849189876187055 4.948760873204546 0.0
202 2 0.32741938257036585 11.861923425700175 0.0 -0.5041141198544098 -0.7256555438665453 0.0
203 2 14.164368872825706 6.867984763916825 0.0 -0.8350242711468544 -0.8582384859091307 0.0
204 1 3.9357039864375714 13.630560892850083 0.0 4.837256753584703 1.8836446251943975 0.0
205 2 1.8669365643040134 18.45536341636605 0.0 0.7802753959049648 4.584192049083438 0.0
206 1 16.88680658641808 3.199708688439626 0.0 1.7307948939381594 15.015376147828063 0.0
207 1 9.496957256657591 14.911177571849274 0.0 -11.776888285203325 -9.663690981978196 0.0
208 2 15.181913300030118 14.371112925002747 0.0 -5.447166590381694 0.9587393669006582 0.0
209 1 8.049339760960184 1.9278813238262877 0.0 -4.13017084951893 -16.825715998945675 0.0
210 1 5.018923963813402 12.170027279248558 0.0 10.15171733306715 -0.7441183909705948 0.0
211 1 10.90648134657875 5.89184388970994 0.0 -5.924015035872799 9.20817130957024 0.0
212 1 17.487446809089985 14.404974394116838 0.0 9.118814512981661 -3.836667363062723 0.0
213 2 14.107392180340376 9.552752730845553 0.0 7.99127577416873 4.792013691963355 0.0
214 1 0.06111591662977027 16.41163405479188 0.0 -4.793793952480532 -2.607236143877965 0.0
215 1 13.458532505092819 2.1014945209874476 0.0 8.8871925326941 -10.10695393829026 0.0
216 1 1.230790021418834 0.41753454202036017 0.0 4.434530088263798 1.3660896581658668 0.0
217 1 13.09247186415226 10.378584959932555 0.0 14.947808168528944 8.293374133392032 0.0
218 1 6.395556454886605 18.949675180046512 0.0 6.214478770091169 3.9911554492046517 0.0
219 1 0.3481233337675282 18.12642769983918 0.0 10.452332608977422 4.408911739984496 0.0
220 1 4.001866003852938 19.671569715648396 0.0 -3.439399996069015 -0.05933249529264942 0.0
221 2 18.170839796315782 8.029628986595313 0.0 6.610422959380595 -6.753154927356563 0.0
222 2 12.070833480898132 2.8943570894767703 0.0 5.971481978689413 -7.306547758024074 0.0
223 1 15.103798744734894 8.835866665965039 0.0 7.66124255811407 5.582062302270597 0.0
224 1 14.215111062977288 18.27892438573019 0.0 4.171240920886604 11.221024762971913 0.0
225 1 3.03870501064765 1.3824224848879418 0.0 -8.729694609005893 -1.6594938623120459 0.0
226 1 3.0314451590388005 6.798873366368292 0.0 -10.459809556059632 -2.9069677630660187 0.0
227 1 19.701800937697897 6.130219074986076 0.0 8.416295992160784 12.63063454390515 0.0
228 1 0.5529372456678326 6.09815324341214 0.0 -2.0498377849370235 3.222654495738908 0.0
229 2 18.76136994421586 4.802399779229977 0.0 -0.35930923031102496 -2.4205181294045457 0.0
230 1 14.303424278268334 7.636289192136719 0.0 5.594121540859648 5.883868864720395 0.0
231 1 7.281680647273653 6.12359651620665 0.0 11.219559462080305 -13.68047588838333 0.0
232 2 19.582506416158573 13.819188330154008 0.0 11.656935404839485 -6.942020361499037 0.0
233 2 10.999427002074029 18.483780868337536 0.0 -3.765309073116662 -6.982506811098941 0.0
234 1 5.614953663346956 1.3031241652945267 0.0 3.5905840153004016 6.234881847597968 0.0
235 1 9.207582016479423 4.252018398932085 0.0 15.578371411990567 -1.0462997269714747 0.0
236 1 16.48635964179728 4.283096416020922 0.0 -0.3436749661596066 0.6308651353093337 0.0
237 2 13.107035410844155 3.0797921229635765 0.0 6.271214631332392 -6.4437843359468765 0.0
238 2 13.819024657187565 11.673497426414615 0.0 4.865954434511914 1.43050028468252 0.0
239 1 4.0380559524322255 7.490845785996916 0.0 -10.736547612386827 3.0515329680649983 0.0
240 1 15.60251703549775 15.05189809633329 0.0 -5.215192971969901 8.905653027470295 0.0
241 1 18.449084432870592 9.913687066224401 0.0 21.44102717457827 -2.3546675243521946 0.0
242 2 2.865800313305212 2.184581442625854 0.0 10.847406784197071 2.074846605978426 0.0
243 1 10.311732281680419 16.568711094360722 0.0 -13.728070826471354 0.564162493848617 0.0
244 2 1.6984760649544475 8.806846441640733 0.0 9.415607342298976 0.004100386619043303 0.0
245 2 14.705313896162792 3.6332677042873294 0.0 -1.5884858345454222 -2.8024143812611246 0.0
246 2 13.180847227177132 4.577549637309894 0.0 -0.9474472041775982 -1.933186855610043 0.0
247 1 8.648884071879948 3.4928366049365844 0.0 -0.21049881090745348 0.3867286920587007 0.0
248 2 3.549850970218514 12.332388185851942 0.0 -1.3263036611227166 6.34668076069196 0.0
249 2 15.890011113483645 19.244529046455717 0.0 -5.378571626680997 -2.412295940371689 0.0
250 2 10.438263299594626 3.4824942751195067 0.0 2.409064910458764 -6.500241239261756 0.0
251 1 18.06055749798174 17.13859372437151 0.0 -5.108862194521252 -2.8877242397389042 0.0
252 2 7.714491578699629 3.8128221149627333 0.0 5.586770867852147 -2.7278345852088437 0.0
253 1 8.929804237743056 16.314630012271124 0.0 -6.354666617591105 4.287461152056241 0.0
254 1 18.351350325190076 8.76405710974568 0.0 -3.6778008726223366 -4.246580141797411 0.0
255 1 8.122760225743564 17.539446467031304 0.0 1.685333467692222 9.550775520393628 0.0
256 2 3.648694131875448 10.585643017529383 0.0 4.882265957026535 3.6303334215103704 0.0
257 1 6.069366930203234 5.080866827469739 0.0 1.4243878356040596 -12.802437897059143 0.0
258 2 11.297992935198401 8.201995125644652 0.0 -1.9796021435142774 3.7629327944018263 0.0
259 2 7.031955993716025 1.1470990832895105 0.0 3.3718739263365443 -3.251278076182374 0.0
260 2 12.470161106631698 5.489275556276064 0.0 5.4621798358551095 -3.108305785560156 0.0
261 2 13.61830251758436 14.334481107089054 0.0 9.960529902089318 -4.181721248940725 0.0
262 1 18.849128716442028 14.437316328467903 0.0 -0.6388145187848172 -10.510568881406519 0.0
263 2 6.322179433062513 16.91712633310288 0.0 8.412111812961673 0.5816571292564955 0.0
264 2 6.489774072651966 9.005146028390842 0.0 -8.900425321316524 -2.176249194226555 0.0
265 1 18.437553085567046 16.39390546824621 0.0 2.79502820463029 11.045520551978994 0.0
266 2 3.2496730012307227 3.627805456020374 0.0 -4.005683831391106 -1.516720798397362 0.0
267 2 10.83303257620405 4.593324280982756 0.0 9.396462397635046 8.849007851816381 0.0
268 1 4.089015549051683 15.019648180124852 0.0 1.4495403869006394 13.666464064712397 0.0
269 2 10.784340734251833 17.49602310990984 0.0 -3.438863338686593 -2.382315859935239 0.0
270 2 11.595207965991468 5.168404847678141 0.0 4.519110049609479 0.9456814929687343 0.0
271 2 4.776232335996375 1.5860187324210036 0.0 0.6685080066017226 -9.16792393039739 0.0
272 1 5.629807685608385 9.074121091346772 0.0 -1.30303555315554 2.059682779218683 0.0
273 2 4.093899462214625 4.411659007204182 0.0 2.5049245615750544 7.670074669902128 0.0
274 2 8.12385687448643 16.562917915671196 0.0 1.4705776738999257 -1.683429348309462 0.0
275 1 2.0163743312068494 3.3063025258029053 0.0 -8.06443278415329 -1.3792805062177058 0.0
276 1 12.341436750835369 1.8000933088510138 0.0 4.08939374624031 7.449723687449946 0.0
277 1 2.342260684879106 4.96126006595299 0.0 6.480047192563196 -0.7330918168447219 0.0
278 2 17.016908665522646 6.91701631793782 0.0 -9.684412297855316 0.7907254246176937 0.0
279 1 1.6157361742265537 3.037121913978693 0.0 -2.7533450072694543 -6.383894051430125 0.0
280 2 1.9512330800175088 6.906653757388969 0.0 -7.75691612563553 6.2743272887072825 0.0
281 2 7.868132104517437 15.489098985298526 0.0 -0.7684783178328293 -1.3772519842276978 0.0
282 1 1.0005970883014732 4.487262209609576 0.0 0.11491821190420917 -6.254508611704049 0.0
283 2 4.68714625531639 16.15460883217142 0.0 8.072014663247703 -0.9668530289403053 0.0
284 2 11.726785035889217 18.954422668688867 0.0 1.8749818447454214 2.1762530482318647 0.0
285 2 9.607239642539673 8.663307884048612 0.0 2.3357220010509363 -3.2704716176226514 0.0
286 2 5.726891936807625 6.101327767309619 0.0 5.516271185386166 1.9088166003294178 0.0
287 1 0.6721555764628909 19.03111668402773 0.0 2.882583296442847 8.043357068533442 0.0
288 1 14.075217240678759 6.03178721899688 0.0 -10.280816124570103 -1.5166034768239163 0.0
289 1 0.13126045345910825 1.3391593105544002 0.0 -4.98558635447912 -7.957187238337266 0.0
290 1 5.6657362806835545 15.904222646806744 0.0 13.729096760507705 -0.2383953695657994 0.0
291 1 17.272640915056883 1.021175499599978 0.0 -1.1125323605041306 2.5864581814377314 0.0
292 2 19.073586167123658 7.22858164523801 0.0 -2.1693616490416403 0.8720790765362345 0.0
293 1 16.952983214823476 8.59327491814812 0.0 -6.718855300944906 1.4336076018817545 0.0
294 1 10.975700122249076 12.333721351290496 0.0 0.6029657930438712 -5.796885362162659 0.0
295 1 17.601494146207386 11.092936749966857 0.0 -2.557025206001842 12.474372075633578 0.0
296 1 9.700857944167561 15.907065312067585 0.0 -2.350549827526147 -4.028412320723776 0.0
297 1 4.779599431322456 17.273515749581545 0.0 -2.5582727225629474 5.920599044044548 0.0
298 1 11.571119704966224 16.179777116020205 0.0 -6.562665375822152 2.047394169438538 0.0
299 2 15.41432659424696 1.7611665318060972 0.0 1.0412051587816853 -11.008326765675386 0.0
300 2 17.170750363664844 0.11661307802791004 0.0 6.607354050868482 0.6899169466080418 0.0
301 2 13.124286128161035 16.975862378768444 0.0 6.288214397924636 8.0559860524682 0.0
302 2 2.893727844857085 5.795657851691506 0.0 -6.319063259865361 6.694821254956403 0.0
303 2 18.53207209785775 3.4020848990247328 0.0 0.16977480836174144 -5.944323081850261 0.0
304 2 15.84691384031345 13.281660721819343 0.0 -5.697247397712975 -5.60022719218331 0.0
305 2 3.712884560239511 17.61263910244764 0.0 -4.910983123948572 -11.482987256333749 0.0
306 2 15.432175805790298 9.755513813852055 0.0 6.587807826946047 2.114509518212271 0.0
307 2 5.427776745093491 11.561610545813906 0.0 -6.923229615335024 -4.512920184005302 0.0
308 1 7.578965640691101 5.408775075183595 0.0 5.149919090676433 -6.324209037789925 0.0
309 2 1.0621586300879968 6.844544484435349 0.0 9.575518274830921 6.791770667036372 0.0
310 1 1.2219113603673055 5.751735400746414 0.0 1.2959216761775367 5.266969150162835 0.0
311 2 17.39346861928193 1.866935373550828 0.0 10.375290652970039 1.3658165007405494 0.0
312 1 8.840612341528166 6.180263476319266 0.0 -13.875395185655716 15.422108714707429 0.0
313 1 2.7101298142905317 12.94201312178173 0.0 -4.9550842345414985 -1.9982166245358162 0.0
314 2 6.639510144613633 3.493163591742941 0.0 -19.262060191709427 -10.956027468557622 0.0
315 2 0.006101681721674617 2.31271719057011 0.0 -6.791839928410173 -2.4456412534245366 0.0
316 1 1.687744858075648 4.327084911990573 0.0 -8.506130870714022 13.083128660389066 0.0
317 2 15.674216922852967 11.65038758103361 0.0 7.161675081762766 2.1775432961940764 0.0
318 2 6.930748371782146 15.260800964913711 0.0 -8.313444770172616 -0.9846374740353361 0.0
319 1 19.177778117708055 15.986418966257617 0.0 5.2822759801670935 -7.037835530433721 0.0
320 2 11.759698425861664 8.9240454594826 0.0 5.127571275571002 4.079462845154221 0.0
321 1 17.521528933726476 9.010445366681468 0.0 4.6283747032375135 -2.66775307430554 0.0
322 1 17.82364634776897 2.61341240216425 0.0 5.557468359876864 -7.850287778644354 0.0
323 1 1.3535472633635193 11.213131717789766 0.0 -3.505142355281748 10.886999443417515 0.0
324 2 9.29428670833226 0.5303997664139644 0.0 -5.892760645854451 -1.8934997845260513 0.0
325 1 14.16682200004248 4.510077254064512 0.0 1.1363021810319849 -5.521766064435005 0.0
326 1 9.513549671023604 17.94588618442063 0.0 0.43411190561082585 -7.5127445143026 0.0
327 2 0.13117005918113225 17.250005909053705 0.0 -4.039303173103911 1.0992871200737169 0.0
328 1 12.94682100070529 11.842167503767119 0.0 3.4092027129724767 -2.6389410106498654 0.0
329 1 3.046003887258212 13.389104511279971 0.0 -11.962376527342226 -2.1269740783331366 0.0
330 2 6.197280952195112 0.5082128602211037 0.0 1.1514792000220255 -9.534915170623435 0.0
331 2 17.337860119269347 16.832782388346878 0.0 5.550879229529594 -9.248113325246909 0.0
332 2 4.66197482046924 11.22428913090029 0.0 -0.011433837060610541 7.600934975776591 0.0
333 1 12.915013812009684 1.754777191873659 0.0 -2.1268678303237993 -3.485437925140018 0.0
334 1 2.7057862148272034 16.997621436636642 0.0 3.5034324987180527 -3.8719754609798254 0.0
335 1 6.296231183291585 8.025722764816564 0.0 -7.230468740350374 -7.513264621813613 0.0
336 1 6.82844349164687 6.451636114548075 0.0 5.7975574679915045 -13.321066955837725 0.0
337 2 10.996139918668147 9.670367940634861 0.0 -4.218225337380512 6.9636400532952445 0.0