ITEM: TIMESTEP
0
ITEM: NUMBER OF ATOMS
400
ITEM: BOX BOUNDS xy xz yz pp pp pp
0.0 19.7609 0.0
0.0 19.7609 0.0
0.0 10.0 0.0
ITEM: ATOMS id type x y z vx vy vz
1 1 0.18272207115765804 4.648241623555572 0.0 -2.305731060966737 -8.70763750844392 0.0
2 2 15.185933304185053 0.5656339552713708 0.0 -1.770763166557886 1.2027050361336356 0.0
3 1 8.226081093221753 3.3852185091930433 0.0 -0.36147809433636946 -6.09609589561636 0.0
4 1 18.166480661302348 14.86100020460031 0.0 0.7290465795455499 -0.27519035802906716 0.0
5 1 3.5246053121082443 13.824662992713986 0.0 2.2177600974181493 2.743072159040994 0.0
6 2 8.179481599535654 9.383362980897388 0.0 8.98579602669381 0.9123381335918915 0.0
7 2 16.312185475912443 10.043274417313173 0.0 -9.355645162782178 3.3513829244056432 0.0
8 1 8.430504066263216 10.719540452171021 0.0 -10.830477206256484 -6.41668209769101 0.0
9 2 10.439811046486316 7.526927671499348 0.0 -0.9956885044269463 1.091043519792414 0.0
10 1 6.554755281239772 2.2310953516255325 0.0 -5.795229854724504 5.086891580189899 0.0
11 2 10.187580450678347 17.153137486983532 0.0 -3.6673989172562385 -3.8463662216611687 0.0
12 1 18.281809086479168 5.604714723288337 0.0 0.9357463417521339 -8.966940092846963 0.0
13 2 2.1592904231256487 5.564209835198894 0.0 11.01803243648281 2.1792473254636358 0.0
14 2 14.45459364312355 12.750975634661081 0.0 7.7152153543743385 -7.097873799527276 0.0
15 2 13.868736181763992 11.83551351843364 0.0 1.2974435309694468 3.2818839442862724 0.0
16 1 5.644536032726694 12.541121472933566 0.0 -4.896059113164158 5.911507570840731 0.0
17 1 9.162920558776982 4.960941337779265 0.0 3.983744529705831 1.4358975112129693 0.0
18 2 14.859544273631169 7.9253378571185085 0.0 -0.6766823525686951 -1.590895185817143 0.0
19 1 18.103033391265466 6.147738751321498 0.0 5.7412304765886 1.7038088528045128 0.0
20 1 17.28293845914735 3.714573692948596 0.0 -3.2788766249096386 9.12303940075808 0.0
21 1 11.68797700424007 13.263503477775352 0.0 -3.143983970252698 5.9101543424122704 0.0
22 2 5.334569990315086 7.6115294002815155 0.0 8.291471131801918 -1.639728839021095 0.0
23 1 8.597037329894828 2.676700340945801 0.0 2.5918356128338758 -2.6831512222516993 0.0
24 1 19.52977878213346 3.2184426998724383 0.0 0.09494719478977413 5.6405173754008215 0.0
25 1 17.28038399125598 11.56603960139666 0.0 -9.707400983543291 -10.165799985871928 0.0
26 1 6.765159209463169 18.59254191024725 0.0 13.509692146836953 2.9094932853634385 0.0
27 1 7.845601160171146 1.1695119464226413 0.0 14.315950539756214 -1.3975466988619742 0.0
28 1 1.288486692958036 7.6718445198259975 0.0 0.8946292699357022 -11.311472924738768 0.0
29 2 7.771171371253113 18.028401878592472 0.0 3.0729864400123215 -5.404023419825012 0.0
30 1 19.071476726027974 13.750707867736896 0.0 3.6324074900029824 8.386679001229561 0.0
31 1 2.4357541572242867 11.629002183722521 0.0 18.056462361734617 -9.789568682551703 0.0
32 2 12.810355038141948 11.07056481233614 0.0 -1.4848503309270435 8.513526430786127 0.0
33 1 8.205742758397816 7.454056288675249 0.0 -5.019679848175779 -6.496938758807943 0.0
34 1 3.17524494403254 0.6192839639240472 0.0 3.690266536272353 -1.3709401174252813 0.0
35 1 16.115083957332516 19.672229112809926 0.0 10.039179115148249 -2.40151794759569 0.0
36 2 13.449141237281832 5.52020367582581 0.0 -9.600295770659756 5.537172018394958 0.0
37 1 2.7560714668702393 1.1350894638734619 0.0 3.819915355403007 1.015600044368658 0.0
38 2 6.200539256321015 7.221235634812728 0.0 -9.83692433992143 -8.429499505884129 0.0
39 2 16.867004655323086 6.909293182445912 0.0 5.74682838451539 5.267061717095317 0.0
40 1 4.088463961341315 16.24263222288702 0.0 -3.481652553710378 1.1511372852021415 0.0
41 2 19.760796564622353 7.584432022234597 0.0 -3.996277019787704 1.6462402896382904 0.0
42 1 15.834921904580437 17.568838346510116 0.0 12.887750263677676 10.096731526021783 0.0
43 1 0.9427738934799814 13.365044328712395 0.0 10.130412279391534 14.925070346444025 0.0
44 2 15.630482163167445 11.02745352711327 0.0 -1.7468858639451208 10.754977388640846 0.0
45 1 4.857979385321879 15.745584753672148 0.0 -2.2206567627476312 11.348346625363634 0.0
46 1 13.446265274247246 1.0742961548060939 0.0 -15.925936686741528 -3.192623759730297 0.0
47 2 0.6096947851830707 9.466545965023489 0.0 5.8400765471766505 -8.077692417584673 0.0
48 2 16.122567735378727 12.174309771940361 0.0 7.687708092844964 11.85157364260783 0.0
49 1 13.333389518162198 12.691210508344051 0.0 -5.384591318873919 -1.4191854401989983 0.0
50 2 7.140695461100078 7.9208779504281654 0.0 -9.059131433398772 9.609109804051124 0.0
51 1 7.674510885088069 6.933104749034613 0.0 -5.057497725927683 -20.65470721632932 0.0
52 2 3.730515749816138 11.964009579538738 0.0 3.541736754416121 0.5733932557599174 0.0
53 2 8.562031378376977 12.630700801973646 0.0 -2.9583827840268886 -6.6956891793379345 0.0
54 1 16.54595441570578 0.04119950064469128 0.0 5.9067411252178745 4.284897440500895 0.0
55 1 2.723096831704633 19.627893268321277 0.0 -9.974120146925603 7.884349080341704 0.0
56 1 3.9064457852451464 17.281730976583596 0.0 5.196141993506473 -12.774034929322616 0.0
57 1 11.939497650549384 7.143295385897425 0.0 16.954742237926514 3.4537714613900095 0.0
58 2 10.499085535538866 9.19983185709241 0.0 -0.46754407188948527 5.698427565854925 0.0
59 2 1.7422189565720134 16.648635477035974 0.0 -5.049441292246496 0.06213907623853569 0.0
60 1 14.712201927890172 8.902033613711435 0.0 2.946041111912534 -19.745662800726766 0.0
61 2 14.148280825608106 0.22526856158927064 0.0 -5.674735773424701 1.9364870556636111 0.0
62 1 6.4859251975593395 0.9913089182289108 0.0 10.694070143577628 19.78821682412404 0.0
63 1 14.980362165487932 14.461826923528047 0.0 1.7532720342213364 7.049757322552794 0.0
64 2 1.008024586773832 12.30687963139595 0.0 0.4394424005751764 8.652230154056001 0.0
65 1 0.20343654840219932 3.1605984828366704 0.0 -9.737740175848758 -7.111614543059151 0.0
66 2 16.436218521948295 1.3917229440034269 0.0 -4.813817919123076 -5.72161624356991 0.0
67 1 19.72289782886629 0.942088705919823 0.0 -5.029300837387016 0.007173506002962717 0.0
68 2 16.77900801843232 10.915075955793094 0.0 2.2894962402032233 -6.394403213496517 0.0
69 2 5.666325003880154 1.4115999492204305 0.0 -1.3950481579857992 4.418388598411952 0.0
70 1 18.083194495397528 4.061484458969327 0.0 -13.170133936549277 7.341239007250525 0.0
71 1 10.92434589690165 18.129099244708037 0.0 17.949935884918407 -0.5624278331200089 0.0
72 1 9.93321409072953 1.7804557991792485 0.0 -19.691740208027063 -3.806810740418568 0.0
73 1 18.592407955262434 6.034251875056535 0.0 8.942638499673285 -11.91906440718807 0.0
74 1 5.108372796870123 11.54235901366822 0.0 4.717996092080444 4.531400075947697 0.0
75 2 9.537683366105833 9.342910013365367 0.0 -5.672225231437528 -4.585303991124278 0.0
76 1 19.50497851210054 11.130702226163532 0.0 15.186544419217922 -1.9770511005494942 0.0
77 1 4.878284052310595 0.5818195902949633 0.0 -2.350015155334653 -9.476632260174924 0.0
78 2 11.685849004368617 4.93294399593146 0.0 9.114667172525781 2.1783582646863753 0.0
79 1 12.519660393045502 9.696001838848883 0.0 -3.3992957343326546 0.8801696957906557 0.0
80 2 12.719635163107686 3.383069980855031 0.0 -3.4356926189862085 0.8868629828506372 0.0
81 1 18.36773716749802 9.100124269746418 0.0 -3.1990659593047988 -4.672315745710988 0.0
82 2 10.513870818308412 10.804501556017234 0.0 4.0597529565470145 -4.60223489800741 0.0
83 1 6.905651125530493 17.29502277646707 0.0 -1.565510577456329 -11.3121942683756 0.0
84 2 3.836396002132335 0.1881879696709298 0.0 1.7725540546027847 2.119134759538364 0.0
85 1 5.074111197716649 6.5032873289191 0.0 4.7669931170711735 1.5587762869492343 0.0
86 1 12.026281598788051 13.79843228571207 0.0 -3.8140974440520683 7.35009727280097 0.0
87 1 16.598819748924768 15.416017680619149 0.0 3.062080160989015 -6.005713881770513 0.0
88 2 5.94780304582377 8.355760726356413 0.0 2.713419341534356 -10.021468964448921 0.0
89 1 11.270743956932552 18.699481976745275 0.0 4.478663585999461 -6.092607669643646 0.0
90 2 15.725140996129626 15.614852723294886 0.0 0.15317690207469017 8.083617047651336 0.0
91 2 7.327531973781241 12.636437549415405 0.0 10.373246174559537 -10.014351550595599 0.0
92 1 4.555024883322418 8.15764075009801 0.0 19.517680971402466 -3.7223698387805144 0.0
93 1 15.962636148381698 6.527791310378434 0.0 -0.26357803703344784 -6.455234561533167 0.0
94 1 15.046542607903678 2.9612877062050535 0.0 -3.911815606925209 0.785310159521776 0.0
95 2 17.37864860523631 12.75608065120358 0.0 0.5798169641764718 13.96021278090152 0.0
96 2 3.6489001088376782 3.0295211875320622 0.0 -2.9773422082699827 -5.498644923201453 0.0
97 1 14.000118807643187 2.540565687396125 0.0 -5.259933121235817 8.216777486691711 0.0
98 2 0.25155890835593936 12.93807748466403 0.0 9.0271314234709 -3.4443219551776267 0.0
99 1 9.57570738042377 2.5675624636780094 0.0 -8.42915228543138 -1.3550102566196685 0.0
100 1 6.185841987535328 18.67240360721498 0.0 15.331234989701537 0.31919816216931884 0.0
101 1 6.185775926682988 3.714208440569114 0.0 5.425322972107461 10.59885177471145 0.0
102 1 11.303179969957528 0.36951290884101023 0.0 10.917971651484347 -2.2720718547919194 0.0
103 1 4.6252174909073895 16.48189177555532 0.0 8.312899883795634 -5.045928755223729 0.0
104 2 1.1612185453035153 4.232877249510399 0.0 7.986327531351566 4.090622266842551 0.0
105 1 11.904237303140608 14.668286356929457 0.0 0.04114665305704983 -2.5167871235763277 0.0
106 1 11.597994970007905 15.152456276236187 0.0 -3.2682451928312775 12.81712231305878 0.0
107 1 9.394166812564155 3.756409496843379 0.0 -8.046104875685478 1.7640980287938826 0.0
108 2 3.3043573706587375 13.108558335741895 0.0 1.3863923198742896 -1.4597597568670426 0.0
109 1 11.842670093944713 11.985154093547646 0.0 -0.8392941825300716 -4.58388489163218 0.0
110 2 4.123272391293659 14.456088991968201 0.0 5.098088226035175 -2.5500093393109955 0.0
111 1 17.740157837394325 1.5164091143959257 0.0 4.388900996422957 2.4933490988713465 0.0
112 1 18.332789433126447 10.23576883923817 0.0 1.1451405892706419 -15.465089826487942 0.0
113 1 1.9159737863384882 0.7984453224863448 0.0 10.351413501516022 -1.0074675565894025 0.0
114 1 14.581208692284603 15.230365611341195 0.0 1.4909189170278387 10.800198059886657 0.0
115 1 18.29434917401832 0.17424149893726473 0.0 -6.660981577475547 -8.798408603347461 0.0
116 2 5.232586156995 5.534543702510345 0.0 -6.146826968010087 9.794854044928709 0.0
117 2 0.8675752203256141 5.282264014439315 0.0 9.858226907268666 -9.232043208502288 0.0
118 1 6.620426153879867 19.669999592125947 0.0 1.645460517012807 14.940119723773696 0.0
119 1 18.175323497828607 17.008321074465233 0.0 0.2918856275127031 5.938286506252387 0.0
120 2 7.676091688614464 17.025916036713607 0.0 -10.974548901098965 9.122785040669147 0.0
121 2 16.30362633503128 18.744834982173952 0.0 -3.2024116612177522 13.151601974239792 0.0
122 1 2.72700176284885 9.89543869846211 0.0 -7.1131231131960355 -7.060169627386026 0.0
123 2 1.0581624129389475 2.823137527395707 0.0 -2.647396167459383 2.8659209604937255 0.0
124 2 17.02370031221226 2.1344555732539128 0.0 0.24635235131136443 8.434791979494802 0.0
125 2 0.28848615167938796 0.08299453791630763 0.0 -1.293098662182558 2.990838216593293 0.0
126 2 5.323486148306309 18.548050465847965 0.0 -0.7202488647028251 0.40063625445249607 0.0
127 2 1.4071946563579485 14.815107564215566 0.0 1.1992423467484663 3.1824975403233338 0.0
128 2 5.5264739478459814 2.2808173745825293 0.0 -1.5714050640400212 3.1550107591853562 0.0
129 2 8.128763287396197 13.776253506216205 0.0 0.6361343863642598 2.102799026717255 0.0
130 1 8.342899279243756 4.410455723827397 0.0 -3.9232167887121046 -2.104140505984941 0.0
131 1 7.308043895612979 3.802042541531594 0.0 11.33300476014145 9.655371840616487 0.0
132 1 12.187660370299543 6.6737766048361085 0.0 0.9530060948973076 3.941902328590331 0.0
133 2 12.646716180876433 17.529038119214672 0.0 15.607043951304567 4.2781325789881945 0.0
134 2 3.9186261951549852 3.9880625560871654 0.0 -12.682702883256642 3.037322526574042 0.0
135 2 10.606118170680357 5.5380079712847605 0.0 -1.7858102980796564 9.632995707642669 0.0
136 1 18.627963662237423 14.801057211813507 0.0 1.6107366481621406 2.674718485397388 0.0
137 2 9.11427143696393 6.295262363675662 0.0 6.816332657442193 -5.675858862866062 0.0
138 1 11.84635559547823 10.662610905331203 0.0 8.231482939695695 -11.958993262710802 0.0
139 1 2.7479096939066103 1.772029188985196 0.0 -1.2820999736737961 1.9121674847960115 0.0
140 2 16.01718175437257 7.970486969174672 0.0 -1.8093604570412012 5.178899087875326 0.0
141 2 7.632881294321812 11.313253027464853 0.0 -8.1968445324437 4.305095971474738 0.0
142 2 7.324769367956549 9.743569287290292 0.0 -6.572158921646658 -9.546973019649082 0.0
143 1 2.617702648893394 4.367937630406231 0.0 -6.865299853234208 -11.84761647095869 0.0
144 1 18.003557062863134 15.716472785150337 0.0 -12.218752878572099 -2.583951792270635 0.0
145 1 11.497289566815487 12.719792959466963 0.0 7.087210063616361 -6.616879218805532 0.0
146 2 5.817584368888716 9.291299423449287 0.0 -2.678989447659226 -4.303137495919062 0.0
147 2 13.947509079268842 17.78087554696908 0.0 2.75051261492939 -13.321560087618554 0.0
148 2 16.299491107764137 3.943482306886664 0.0 -5.652464561577963 -5.514528314404558 0.0
149 2 7.476256749069778 4.845020319384863 0.0 7.187165858792081 -2.746704282112383 0.0
150 2 0.9867077902016393 18.734208652235242 0.0 -0.11159787280136148 -0.5813456221060123 0.0
151 2 19.25109249127596 16.89554458551332 0.0 3.4554820256244234 8.609915228817414 0.0
152 1 14.2225686579494 9.18208306528373 0.0 -5.730130366400211 -0.9703633623381588 0.0
153 2 8.929790213397112 16.34991709235023 0.0 -3.974726638701751 -1.8596131986410476 0.0
154 2 1.7373861796841263 12.643458916565635 0.0 -11.049842989270553 -4.54247671554904 0.0
155 1 10.971006275355828 16.853881026156646 0.0 -1.1038921618593929 -10.331225131500561 0.0
156 1 3.4460375662065723 17.697354112902243 0.0 11.936350054756227 2.1938163504293695 0.0
157 2 3.772683546445639 8.091079156147359 0.0 -10.835916743361231 -4.222387801318143 0.0
158 2 0.9809641354614697 1.1394204032376316 0.0 -1.3082376006532042 -7.558271422486342 0.0
159 1 17.919021700814472 8.152624075793579 0.0 10.150883759651128 15.494277647279361 0.0
160 1 17.397556718909527 10.295785970310193 0.0 0.6274865087838116 9.137259790027624 0.0
161 2 17.85882487180783 13.966359068480358 0.0 -3.8999795366238104 -5.073808597086718 0.0
162 1 16.814642565839314 16.435552673945892 0.0 15.689458910820301 5.980282246078064 0.0
163 2 16.5640756916718 4.9759643879449005 0.0 8.091595764999694 -6.850646586451296 0.0
164 1 12.68482980043349 8.821019924475394 0.0 -1.7450038308244777 9.471684468796717 0.0
165 2 5.532569793308028 14.922375241071212 0.0 -7.634321674978511 4.302863047158786 0.0
166 1 15.685536455424485 13.24965908600209 0.0 2.956357242090039 -3.352769710574811 0.0
167 2 13.826118343997347 16.934435128714714 0.0 3.8880278251740843 7.69756857043267 0.0
168 1 19.17551750716905 9.333309061529391 0.0 2.744089490109234 -10.092792858825879 0.0
169 1 1.7290432542463867 11.703268833055455 0.0 -4.496098792273148 -13.231232006730504 0.0
170 1 12.005789043488756 12.73505131712966 0.0 6.293672203492714 9.999583626085714 0.0
171 1 13.227051490919354 4.800127767939766 0.0 7.329098643290037 8.5940424580677 0.0
172 1 3.016839517172757 3.7503460861624163 0.0 -9.462299602814063 -12.30421436909561 0.0
173 2 2.6256797512453027 12.519857550238896 0.0 5.353638954448147 0.0609046385356018 0.0
174 1 15.498428518518164 4.052371685314337 0.0 2.916303770861691 -13.987524312539808 0.0
175 2 0.11900654303809491 13.786650208012196 0.0 -1.4045541629320761 -2.4654366168512296 0.0
176 2 0.5955712268182943 11.501676366568304 0.0 -5.479654532225519 2.7238545156520653 0.0
177 1 15.517491159155876 6.772869520287586 0.0 7.5708145977177 -4.953991258310435 0.0
178 1 12.867321799318951 12.943058069267444 0.0 -2.868283744874268 4.6922690328132015 0.0
179 2 11.895505837742437 5.787595916897088 0.0 -1.4884928500733743 -6.762990487223907 0.0
180 2 14.363768477115059 13.85366877841761 0.0 -4.0165609909131295 3.2985116812542223 0.0
181 1 3.3945440111994998 9.336353211275876 0.0 -0.44367868886534084 -5.882826566269839 0.0
182 2 16.245792906462263 14.085279596750603 0.0 -2.765701365129587 -1.5102708964102196 0.0
183 1 3.116712828276746 10.496429137893191 0.0 8.862323445248999 3.3061809890470557 0.0
184 1 19.72030045313147 1.4464394060367542 0.0 -7.791560861967268 4.688378662229446 0.0
185 1 12.309548015689957 14.28666506676751 0.0 10.406678143146758 4.0669592287503855 0.0
186 1 9.244717237610024 18.643331906721045 0.0 3.231071310684333 -0.9400940926735458 0.0
187 1 12.105105905466818 1.0257909890703227 0.0 3.2348571986956762 13.427869122824562 0.0
188 1 15.14516323177466 13.497731830891219 0.0 7.804997921618363 -7.572397468692953 0.0
189 2 0.1811501504517893 18.58332056997905 0.0 0.01718240353379364 2.3400474765092416 0.0
190 1 18.798312978712378 1.6925578765153992 0.0 -5.4028691106303395 -0.6233829660099206 0.0
191 2 10.643197238464372 13.285922134114 0.0 -2.9657876380516464 2.7426054851580894 0.0
192 2 14.50828698064947 6.019578434628525 0.0 0.6478150683660406 -0.04238862997468633 0.0
193 1 2.6105473536401087 0.5878971494374629 0.0 -0.1849811236138012 -9.450786299818578 0.0
194 1 11.192696533060984 15.54412071959741 0.0 -2.6953979285195095 5.32979621129572 0.0
195 2 11.24858903546419 2.2871069709959704 0.0 10.161457747207926 -9.565803764496277 0.0
196 1 14.868268189288388 3.640075894030995 0.0 -2.082472826039122 -5.027979663562196 0.0
197 1 0.6253626276414125 16.98697980244537 0.0 23.00013888955069 5.815086920489666 0.0
198 2 10.379097773744753 0.8860167316914223 0.0 -1.460380438314955 -2.298823738728491 0.0
199 2 19.12247251576112 8.430298975867089 0.0 0.08130244136253888 -15.046840818100321 0.0
200 1 19.64135089113208 3.70089341186597 0.0 -9.727247467562124 -15.438867032452116 0.0
201 2 7.790237403547672 0.15001415542106158 0.0 0.7307438132472777 -6.392519264349878 0.0
202 2 4.8484435487145845 9.074204173962848 0.0 -2.2635706486843263 2.8625762319261825 0.0
203 2 7.266869347264963 5.753030682347315 0.0 1.1105093804473034 10.518114880350957 0.0
204 1 0.3586926767894449 3.9302432408512127 0.0 -0.7638010725125493 4.414575702457544 0.0
205 2 17.031177981295727 14.530957630163268 0.0 -8.397903980465921 8.57130299917248 0.0
206 1 15.166123478302826 17.17905548251814 0.0 4.530910556773538 11.781987556496565 0.0
207 1 3.3968423661303855 19.125401821941715 0.0 -1.8510319948320768 13.941777326415236 0.0
208 2 0.5482857987871539 8.404485753778463 0.0 6.659962869844186 5.074579792410036 0.0
209 1 18.544159410497702 13.1358407220329 0.0 0.4103737336729495 -5.532535565135607 0.0
210 1 0.8392582928174748 14.320238414889948 0.0 -3.9840475378327125 4.821957333175637 0.0
211 1 13.910905113543247 6.723774988841034 0.0 9.107190660314588 6.067033661626375 0.0
212 1 9.417970139543131 5.428442485880198 0.0 -2.4542785592286855 -19.424135572682083 0.0
213 2 13.18230777485323 14.83724438228092 0.0 3.5176940337442857 2.036922031003112 0.0
214 1 15.248867781414956 19.152500258551818 0.0 -3.1096133715683867 2.8717943716984293 0.0
215 1 12.620101941037916 6.419702668215827 0.0 1.7347970497962724 8.34313733935058 0.0
216 1 5.330959798303044 4.028262416483358 0.0 4.051377766390132 8.843177811707417 0.0
217 1 2.357821477460572 2.2245756755037775 0.0 -7.861942425180796 7.349030541783762 0.0
218 1 5.780379007466881 17.26815589814163 0.0 3.3813722220157727 3.919092961746138 0.0
219 1 7.124389195049425 3.1707536172396598 0.0 -3.8408222710568785 1.3197518272489281 0.0
220 1 8.479510381042273 0.7045390122427722 0.0 -12.107055846047103 0.8356463355583527 0.0
221 2 0.5317756433170325 17.753396948420605 0.0 3.4875975514835638 -5.595727028570784 0.0
222 2 4.6958086999272055 4.766835752388877 0.0 -0.11111334857277161 -0.34339813521528456 0.0
223 1 19.164065734121053 1.1456689782761498 0.0 22.17243691847022 -0.13078896637796356 0.0
224 1 16.98785633427477 11.953482241722226 0.0 -8.190651015118569 2.1014199943020673 0.0
225 1 11.12201382122455 17.55519308697699 0.0 5.020332545946955 -4.22888201923432 0.0
226 1 1.382205885072387 6.418924294705833 0.0 -7.507031992360273 2.250461930257607 0.0
227 1 4.589252405424855 12.172575938018053 0.0 11.434222503875839 5.018930637771482 0.0
228 1 11.454419395412456 14.093110141794174 0.0 2.7329746384432188 -2.163432416861414 0.0
229 2 2.462988832919538 18.913760650191307 0.0 0.15304286406553744 -5.073722410452995 0.0
230 1 15.084052326802343 18.103049268991615 0.0 -3.7113761799162392 -2.6545691149766664 0.0
231 1 18.6334137079476 18.819868637206522 0.0 -4.057334636250573 6.257126531957465 0.0
232 2 16.970239587151216 8.84143866453192 0.0 -3.858803397370015 1.9056187867356817 0.0
233 2 18.321889063306564 1.0249259631790208 0.0 -3.590328509739441 1.8221078168925957 0.0
234 1 10.775346567810708 19.040159751930506 0.0 -13.279198551959423 -3.4713955638360585 0.0
235 1 6.2792412718716815 17.362818828841775 0.0 3.889211108592093 -6.204189100682831 0.0
236 1 4.3878217431121325 10.354642053238528 0.0 -0.5713155116313006 6.010227053550279 0.0
237 2 2.481704526913802 15.123135892839626 0.0 -2.67705760650836 2.754590407268124 0.0
238 2 8.54035781028738 1.7878049484054048 0.0 -3.475881840499922 -2.693482876003438 0.0
239 1 6.1374199031988725 13.262705067907726 0.0 -5.205173619050829 1.010503591588587 0.0
240 1 2.0761269697055553 3.7441918345340044 0.0 -2.789577449451594 17.137200371713455 0.0
241 1 15.477395786067104 14.12885522823272 0.0 0.7614966509813857 8.847141839845616 0.0
242 2 9.738240781366528 14.576492056147648 0.0 4.383414993546195 6.7927156226430085 0.0
243 1 18.205501521652877 11.243631829570273 0.0 -8.135041648055735 6.0516153934472765 0.0
244 2 13.565091806624615 9.555000699646616 0.0 -5.610945780609282 -13.795165944611663 0.0
245 2 3.969640345204655 6.576023150611598 0.0 -10.708103786741669 -2.505533316993488 0.0
246 2 0.28414734498804156 10.280010554620924 0.0 2.5680606085260087 1.4963499527087738 0.0
247 1 8.738647930414581 18.131415331875594 0.0 7.0851207058890475 0.0006869064625364801 0.0
248 2 6.1642371414045485 4.575426718498642 0.0 -1.8938423145183096 -9.313608771010202 0.0
249 2 14.26079513692417 1.8059722048829367 0.0 4.721465049449647 -1.8114410256500315 0.0
250 2 16.7631713412573 3.0536607745867848 0.0 -3.2155853722523045 -5.197620615388 0.0
251 1 18.09762150019123 4.896018172429857 0.0 1.9346549287100538 -0.6589094185057054 0.0
252 2 9.780794567492164 8.38494987975897 0.0 -6.659233676119511 -2.996110891968273 0.0
253 1 16.43362081641249 18.002558282497546 0.0 -4.950589174812796 5.049830017345609 0.0
254 1 6.825980848391419 17.737096028278582 0.0 13.396857286421701 18.654127664609145 0.0
255 1 7.176390887906623 19.303176444363366 0.0 9.580073108408623 -0.10207249119812113 0.0
256 2 1.6131454252891815 17.777496840453757 0.0 -1.01099923744419 5.225985727129594 0.0
257 1 5.580667873313944 11.39648728751855 0.0 4.786788563218174 -2.3160499684372824 0.0
258 2 11.69282341298947 9.0750700216233 0.0 -3.7047423271123767 -5.8087411176066 0.0
259 2 5.829809491519523 15.654012350295167 0.0 -4.9492567593391 9.398788147866595 0.0
260 2 2.534714479946144 8.309169942100485 0.0 2.21977388301037 -4.362428005126824 0.0
261 2 3.521432137130194 15.226983364555302 0.0 -4.8574960836419 3.820312460387282 0.0
262 1 1.308661751646124 13.598421226427323 0.0 -6.203843392013786 6.814732783160683 0.0
263 2 4.939486614933667 17.261231074394555 0.0 1.8841381147613872 -4.51548131955298 0.0
264 2 8.45940657571327 11.584938494929409 0.0 1.2672785829628042 -7.401752840209719 0.0
265 1 10.00587673617597 4.088117804640729 0.0 5.999086998462425 -17.825165708311037 0.0
266 2 18.574499565832113 3.415621098092082 0.0 8.775164598937264 10.296514376003303 0.0
267 2 4.067257157121407 18.270677495172954 0.0 0.18073848099299025 1.0066861367276838 0.0
268 1 17.79432248712947 19.674192557360637 0.0 1.7997517902330873 6.512270374366876 0.0
269 2 10.618027869280153 6.643454488657272 0.0 -3.923280984280668 -2.598790778820014 0.0
270 2 11.266374832959482 8.162115035595626 0.0 0.6395330207819485 -0.65170087460401 0.0
271 2 6.982855217522765 16.228192755007033 0.0 -8.128131375964232 0.6606729300982278 0.0
272 1 4.229515320443348 15.655848589652205 0.0 -2.806523754398154 0.24941065414233554 0.0
273 2 18.371661605456048 7.430731320978218 0.0 -6.6243662589346455 3.8396660539514147 0.0
274 2 15.259619035620464 10.137143941729367 0.0 8.560286377022658 -1.3542582470841467 0.0
275 1 3.918879525064315 10.02043908071912 0.0 5.942717989160072 4.1597489861468295 0.0
276 1 12.029274027398865 11.308192761588364 0.0 10.022177355659108 -2.2976944924230387 0.0
277 1 17.380051464780937 6.13904801776806 0.0 -6.997490911687471 -12.97932578716929 0.0
278 2 12.120993258661322 18.181199118943237 0.0 -1.3712217788561507 -0.5884965650303873 0.0
279 1 2.6306269003743883 13.405045986839708 0.0 15.314473140286085 14.168761880712331 0.0
280 2 4.0619076119805895 2.0916362217131246 0.0 7.508487698891302 6.028578036069854 0.0
281 2 14.003264695551874 7.773711740423132 0.0 -2.2764776001913174 2.475936409559168 0.0
282 1 10.617387803293889 19.54751610425239 0.0 5.792379056823341 -14.383477477402838 0.0
283 2 4.803797552527039 3.1710956122724085 0.0 -1.639233901209215 1.798570871732268 0.0
284 2 4.081271075693382 5.52169499723742 0.0 4.296276867326268 2.215426465769882 0.0
285 2 2.051772837207819 10.456896803027231 0.0 -4.514569891968593 -4.128514840820424 0.0
286 2 19.67540051899683 2.3113551336873535 0.0 4.1732171095133594 -6.235388802031753 0.0
287 1 13.047970385851324 13.849490611978089 0.0 -2.7385947388226004 16.36905269033489 0.0
288 1 4.066926300935696 13.361552632660278 0.0 11.488313627303322 -4.432750518428098 0.0
289 1 2.8997569499566236 16.729747166797154 0.0 -13.706928140691598 -0.9013140000329459 0.0
290 1 7.3124295204029925 1.437175840648144 0.0 9.738381713866909 -4.783297249541176 0.0
291 1 14.939156268045753 7.0182759399328205 0.0 -2.8346117178411143 -18.367143889510427 0.0
292 2 4.146742372640773 1.0187058686115462 0.0 3.636190480604667 -11.248793205776954 0.0
293 1 8.843667687560087 3.8208087560019455 0.0 2.674350979884001 -18.152212798725273 0.0
294 1 4.97988229990992 12.63333743697488 0.0 9.985162018849167 6.389640226262486 0.0
295 1 8.9004210201152 4.2632783630086095 0.0 -2.283137947661702 1.3707022643392524 0.0
296 1 12.584719833471468 0.6527042460605675 0.0 -4.52174834529165 13.16689384684556 0.0
297 1 9.795049260210597 4.8103551881952855 0.0 -5.795866856226549 12.826101914886362 0.0
298 1 18.716061653470337 14.079922497175032 0.0 13.594285220216264 3.374791043169759 0.0
299 2 6.41479034330368 10.20269679208543 0.0 -1.2291393881364123 0.7396551751188866 0.0
300 2 6.979549886516643 14.654400358458377 0.0 -3.9508259258544824 -2.1279539943720946 0.0
301 2 1.4745012208284207 9.794395188630805 0.0 11.320471801201833 0.6587672113202421 0.0
302 2 13.134052141864286 2.453441475706334 0.0 5.410118984419798 -12.115344500737404 0.0
303 2 7.923845584474048 14.74149701733078 0.0 -16.533778050096007 -8.677747453686706 0.0
304 2 15.945845767092065 16.620904678116634 0.0 -3.885449906825274 7.047055268410942 0.0
305 2 9.067944700501323 7.3761673453082555 0.0 3.4366974543162603 -0.6197332391298573 0.0
306 2 13.02298001801172 0.031930731288019626 0.0 -10.344798399850374 2.387138795694706 0.0
307 2 4.8448270339716375 19.42399385666992 0.0 -1.107183618490136 7.53181564871403 0.0
308 1 3.228645219670456 5.637112788354884 0.0 4.290116013237545 -5.851382995464925 0.0
309 2 10.306896766538012 15.362790656500588 0.0 15.857610785442205 -8.338139436166927 0.0
310 1 4.179110964501186 9.682398493530966 0.0 -25.16960884239862 14.9104620161517 0.0
311 2 6.340601410270109 5.993561919517162 0.0 -6.267983914435976 -1.245341962036856 0.0
312 1 2.537194016719311 15.981850989395662 0.0 -3.402938139569405 15.386167381703068 0.0
313 1 17.625785479269762 11.297811645980001 0.0 8.78573697883442 -4.677337615999846 0.0
314 2 13.074716680704784 18.834442020109837 0.0 -5.133024936858514 -2.8933840707397978 0.0
315 2 15.219155744482405 4.774773574963438 0.0 0.5421849967676019 -0.10204915223240138 0.0
316 1 16.47800611240411 6.0291113610497 0.0 -0.9608965146407737 -1.9080596211465415 0.0
317 2 9.635883656808456 11.585294119715599 0.0 -2.067021144154646 -9.964766467816077 0.0
318 2 2.0871511274048475 14.088868295370538 0.0 -6.7901659835342025 -2.2799111353849453 0.0
319 1 4.569709608827556 7.149043381571152 0.0 2.47907668392356 10.698309657051121 0.0
320 2 14.699454500975511 11.494162497320605 0.0 -0.8451349819732259 -2.042175459209013 0.0
321 1 11.526327255049736 1.0857036932903041 0.0 7.7759453987512686 8.295654922269138 0.0
322 1 6.391376195615107 11.410310043039887 0.0 0.1135233244090598 -13.73323166134587 0.0
323 1 3.666496779991758 16.543467638031835 0.0 10.071467494829133 -7.778003196116294 0.0
324 2 8.279574452055437 5.323412221434088 0.0 6.504399876009724 -5.955189561996176 0.0
325 1 3.4822366379465577 1.358236321825721 0.0 -3.6720869012653554 -10.939809599096437 0.0
326 1 6.241869977823574 16.524393749672203 0.0 -4.146696233025964 8.007415748050814 0.0
327 2 14.161072334904544 15.914440344600733 0.0 4.653645679141235 3.0489801885697454 0.0
328 1 9.160350790324426 1.2271592918862144 0.0 -0.920738527875973 0.8687156315947109 0.0
329 1 10.078297280133013 9.993342488769601 0.0 11.030604402787615 -15.874071061368335 0.0
330 2 15.963605793968368 8.775340959951357 0.0 -4.600706448440537 2.0143445990495716 0.0
331 2 11.983568765869933 4.0013455837377645 0.0 -4.627199113841046 -4.640446648443598 0.0
332 2 17.302680121268775 0.7640391809455913 0.0 -1.2212719385247481 -8.31232362870847 0.0
333 1 10.262170104858344 2.660815981220864 0.0 -5.562173971603296 -14.478559576435323 0.0
334 1 18.317377279103237 12.199999942400167 0.0 -1.6582494632707336 -16.62174954599161 0.0
335 1 7.308264415422911 0.8325270970900337 0.0 5.664049306424386 -15.235972030641824 0.0
336 1 13.159012807183291 15.705018372733395 0.0 15.542117231327452 2.26794506830561 0.0