ITEM: TIMESTEP
0
ITEM: NUMBER OF ATOMS
400
ITEM: BOX BOUNDS xy xz yz pp pp pp
0.0 19.7609 0.0
0.0 19.7609 0.0
0.0 10.0 0.0
ITEM: ATOMS id type x y z vx vy vz
1 1 17.07653199892575 5.759899494726008 0.0 -9.109184391934248 13.747769491712708 0.0
2 2 17.779767556016466 7.309142755255893 0.0 -4.937200340460093 -3.325639280241944 0.0
3 1 12.707124919810884 16.711070700944212 0.0 -8.067398470536292 15.14259960053811 0.0
4 1 8.433838000143489 16.922502445397356 0.0 -10.299749552910082 3.1884042359951965 0.0
5 1 0.05670506964428672 2.1413469650926777 0.0 -10.165789807478747 5.540237576373437 0.0
6 2 10.299146155891785 2.334637395848606 0.0 -8.522712588631936 11.535812264552236 0.0
7 2 14.269127718517796 10.780276944856759 0.0 1.0555928864872568 15.879808322568081 0.0
8 1 0.30840091796613167 19.048272335927145 0.0 0.7420183122506616 2.8212520608125846 0.0
9 2 18.543778348386784 8.33565390464059 0.0 -2.9224477465000493 -0.264497289099845 0.0
10 1 14.534937897007698 7.776776494780567 0.0 -16.425227090843375 5.981715313936944 0.0
11 2 13.89997020765154 5.946513351548799 0.0 -6.017985101435151 -2.045514368553973 0.0
12 1 10.902156558715674 14.538442308263676 0.0 2.673419479783795 -1.90049102708305 0.0
13 2 9.848576078854984 3.1847697414296494 0.0 19.62244949127258 3.2695240326566255 0.0
14 2 17.786775856302448 3.920763563996064 0.0 6.35341512263612 -3.7477870070888994 0.0
15 2 4.717154792607197 12.355591751917661 0.0 10.177745997250426 5.710873957241997 0.0
16 1 17.416163809271335 16.938524353053264 0.0 -13.350798344317289 -3.762429715654179 0.0
17 1 18.51404527484223 12.091699042511863 0.0 -10.503964589278967 -18.311892610880466 0.0
18 2 2.872221749174949 13.415689511068067 0.0 -10.188581869007272 3.073207066284346 0.0
19 1 19.471461514592022 4.438710965985358 0.0 -9.174829245664887 0.025212228511931962 0.0
20 1 10.93045583535666 11.450556129641297 0.0 18.477459013886055 7.042302217923867 0.0
21 1 16.062615018498665 6.170071337240075 0.0 3.069963098152757 0.1808580106357078 0.0
22 2 4.298959872201976 1.0887280454256167 0.0 8.104182547649463 -8.461370352354002 0.0
23 1 1.8589856635444812 16.50706554242765 0.0 3.099780029833646 -15.845561254527949 0.0
24 1 4.987597904514504 10.606701391307702 0.0 2.7779750321736123 -5.093987153095403 0.0
25 1 12.65577840829816 11.030194201072872 0.0 -5.211639054694703 -0.30240070341297814 0.0
26 1 12.517542225608183 14.20753780620185 0.0 11.88033983833398 -4.968333447374264 0.0
27 1 0.17429973885907324 3.938869219089409 0.0 7.076212790617883 11.592157031345595 0.0
28 1 6.800835145549327 0.7109291103205118 0.0 -12.401967050967777 1.978689678069165 0.0
29 2 5.787515488906739 9.627690320846687 0.0 1.1215680619942725 1.5384311292993427 0.0
30 1 5.821967930945995 5.544911736279612 0.0 -17.73781613748518 0.4609031157776819 0.0
31 1 12.349978025254238 19.098995271005023 0.0 -12.128909480040898 1.2463324242170053 0.0
32 2 7.507081030935203 5.497512634910832 0.0 7.269473465239595 10.816502512527444 0.0
33 1 10.367593330855987 16.06075620105495 0.0 1.24267934128411 3.066207644999196 0.0
34 1 0.47803080255821023 0.33459567380600014 0.0 1.2972265127207634 -2.0880672297460174 0.0
35 1 10.386395319502421 8.599327624427731 0.0 -0.08619476563269336 -1.4629873750380549 0.0
36 2 8.900952779584705 13.702676732364177 0.0 -4.499841597558787 -0.6768557592233071 0.0
37 1 13.2108140167819 18.795783362380327 0.0 -17.243242477184356 3.206408204543195 0.0
38 2 19.31204238055028 17.9589864723603 0.0 -6.4766925986416135 -7.100015696231788 0.0
39 2 12.77969434392222 6.437899462492896 0.0 -3.5583456912133498 4.699870041737759 0.0
40 1 14.34307332192416 19.52385451113585 0.0 10.98779664147117 6.779449446143484 0.0
41 2 16.20479453067419 17.61748621009005 0.0 -3.8499937667450754 10.320430181053629 0.0
42 1 9.592627565132767 2.2098649713688863 0.0 -10.480039333683724 3.436151981431275 0.0
43 1 13.196843099074645 11.785557358387454 0.0 5.935655742518622 3.904222478436852 0.0
44 2 3.019451736831474 5.263293467916401 0.0 -4.273504760602446 13.724253443119451 0.0
45 1 6.802208823501569 3.317971354794442 0.0 -9.537383398811231 -0.37680220729018604 0.0
46 1 6.869527676160867 1.6532509929153953 0.0 0.8155691971708334 -2.241468201042928 0.0
47 2 1.1904766181446218 8.174520808003567 0.0 1.0520758996633113 -14.023312370398406 0.0
48 2 2.5493104617910163 0.14065255354754946 0.0 -5.93711160592012 -4.139229755617146 0.0
49 1 7.674165631420097 4.509970797492673 0.0 10.407022920890663 10.631407556276725 0.0
50 2 17.42756242007674 4.848034487875275 0.0 -5.996289825398009 0.26924106536960396 0.0
51 1 15.588707393198344 16.04199170764635 0.0 -16.421113263195185 3.9495504489538518 0.0
52 2 15.603100585358023 11.835882775139156 0.0 5.768433556986043 -10.025531056855964 0.0
53 2 11.723790375621348 14.287289268122747 0.0 -1.1693447381003381 -4.084037954345742 0.0
54 1 18.411375934082038 12.828142406735367 0.0 -11.655944356852332 -20.41908485921205 0.0
55 1 9.30564600409051 11.606780440445887 0.0 17.409920723842998 12.718812412806152 0.0
56 1 5.803510099182852 18.637954349104234 0.0 11.365370418043861 0.5351962635963007 0.0
57 1 16.044961607564556 9.1085598329275 0.0 -0.7463867881780276 6.418512472141616 0.0
58 2 8.26848689521477 15.060860590334668 0.0 -4.170562125003563 -4.555372238125961 0.0
59 2 2.930900519113026 2.5185875728947313 0.0 7.924831463943695 13.426199435932638 0.0
60 1 1.8813725242946722 10.158452688606273 0.0 -1.2268083838241959 -3.017816860946693 0.0
61 2 12.814385079733759 1.4970183129161527 0.0 2.419906851219501 -12.394641028764903 0.0
62 1 13.796270160112343 7.721120439136057 0.0 16.412004425445296 12.396658680116678 0.0
63 1 14.825024919646813 16.82972065218361 0.0 6.83573006357611 -2.756454591693603 0.0
64 2 3.2098007612625263 3.5957062797037156 0.0 5.784923701925748 5.876276113764557 0.0
65 1 1.2610516245785321 9.211342071602239 0.0 -5.290207974544846 -2.5975048436620742 0.0
66 2 15.76635637345852 19.012441517819756 0.0 -0.5369059891672132 4.4219029581272205 0.0
67 1 1.5225073912392764 12.080906275935815 0.0 15.4532480824355 -10.983700963185726 0.0
68 2 6.26154169577912 4.820161619153003 0.0 -9.445981758616877 -6.308324619324862 0.0
69 2 17.588670484203952 12.89521241100012 0.0 0.2981644000758178 -4.767984862026854 0.0
70 1 19.41344467150215 17.203960200856944 0.0 -18.581310963167493 7.205354844523953 0.0
71 1 6.37302549808956 17.656412033243683 0.0 -6.785059708791833 -4.4068060597545795 0.0
72 1 11.124522664967422 12.143459553132521 0.0 -5.1430113423207935 9.687815074026924 0.0
73 1 11.64465124227184 4.625876474245717 0.0 5.811720712066057 -7.013636290075227 0.0
74 1 3.379349430148951 19.39827676437726 0.0 4.391809001532862 5.398541973257577 0.0
75 2 3.776115769989022 10.601208570207453 0.0 -9.77409842504273 6.296643557186163 0.0
76 1 0.06502869904334871 0.9653782711198332 0.0 -10.453649612066702 -7.707510948827249 0.0
77 1 1.5051580301267176 15.399055726511687 0.0 4.957429386376142 -11.199361134660455 0.0
78 2 10.78636623159851 9.400444856404022 0.0 -4.6385659998983675 -3.6134743514960714 0.0
79 1 14.422013267650255 16.251974146814398 0.0 8.73018985899072 -11.696508370031728 0.0
80 2 4.68797762206259 14.91258276024939 0.0 -9.273918908013346 -13.932505950425881 0.0
81 1 18.29980498071436 5.7703804621993955 0.0 -4.095715765990066 8.098436024843105 0.0
82 2 18.69562331960746 3.333176322424306 0.0 -1.7959066579215086 -15.203182079982938 0.0
83 1 7.053016083773281 15.086015848423601 0.0 13.552328198784451 2.999939246635295 0.0
84 2 15.218825599174593 5.700537727466408 0.0 -1.699571475191211 5.905975662517024 0.0
85 1 8.598786608632725 2.7130904991288314 0.0 10.894774270676079 -6.077695987013294 0.0
86 1 19.664056453875716 11.190951574330041 0.0 8.94578453091498 -20.47182934462076 0.0
87 1 15.50281859294431 0.9048439265156466 0.0 -0.9862575788733121 9.133827594212233 0.0
88 2 11.977380242317233 7.12105192945339 0.0 4.473069238565303 3.706919770994773 0.0
89 1 15.236152596912063 7.145954738585968 0.0 -11.57448097709348 14.717553573835348 0.0
90 2 11.781483554025614 11.358536409410275 0.0 -15.775959278853332 3.927859284931087 0.0
91 2 18.98825286087325 14.657001009453335 0.0 -11.56009943185671 -13.565629432898875 0.0
92 1 0.4009101286471273 1.597810432089601 0.0 -6.826746092199791 5.764440627440462 0.0
93 1 12.675821544281924 8.66155996095832 0.0 -0.5458417755029009 4.818655893143895 0.0
94 1 17.80465852919326 5.686601827255897 0.0 -0.5231920428143318 6.809930927976154 0.0
95 2 17.485010919422862 0.42822296017509587 0.0 4.01498897402533 -11.387037382312403 0.0
96 2 6.459681958662443 14.549188257563877 0.0 -3.1711383248419875 3.1958599346252528 0.0
97 1 6.782882962461955 15.987959112975867 0.0 -1.8268951842912242 -2.9290319553612756 0.0
98 2 3.5630337848320317 17.977825016469456 0.0 1.6414578478962925 -4.190977703954321 0.0
99 1 11.837786544496256 18.88050120130052 0.0 21.214076598887875 -17.049582427675812 0.0
100 1 3.8680709754336577 11.742584701645306 0.0 6.755281305192545 -2.140789339078276 0.0
101 1 10.115413706711019 17.373980671111017 0.0 -12.548456211841604 -3.1491861475208016 0.0
102 1 15.366576024335371 1.607838727038951 0.0 -13.09272202276165 15.034468848926167 0.0
103 1 2.731105543532847 7.5392151988634275 0.0 13.256681288356504 -5.715122289751271 0.0
104 2 18.56086920984051 15.928514215747406 0.0 1.6113444313340464 -0.6580529129296279 0.0
105 1 9.470117287688337 9.50375590596144 0.0 -3.5997610954365213 7.057034139389368 0.0
106 1 4.622866861544198 5.0802229537593 0.0 -6.19811886654167 -11.152959237419832 0.0
107 1 14.663500906474312 7.0026996521435665 0.0 -7.643653021632067 18.420422464005526 0.0
108 2 17.816901072334 18.012988120833864 0.0 -7.968734845161801 10.040973940093819 0.0
109 1 4.728088267590218 13.50171477268771 0.0 -9.219056529462998 0.48889591640012375 0.0
110 2 4.010427788958383 0.18212923898650976 0.0 -3.5694050588469324 0.023011261385149192 0.0
111 1 14.858494534815875 6.434158682119416 0.0 2.406736893134974 2.542975186660325 0.0
112 1 3.111357103639117 7.167833863669454 0.0 0.25264812948374865 12.094110042769776 0.0
113 1 13.084189096694216 14.953062926625817 0.0 10.917314976534794 -1.5696563872903033 0.0
114 1 15.236797059382429 4.52463340305997 0.0 -10.517326631865012 14.363921624883066 0.0
115 1 5.001312557059623 15.99039368281653 0.0 1.3160358201144748 -6.329859323484235 0.0
116 2 5.749528185334106 15.356068499565021 0.0 4.241854740333114 0.8136288900139331 0.0
117 2 10.003526131867874 7.293074923762649 0.0 -4.483381213304439 -4.290206359537127 0.0
118 1 0.9895858813945358 1.9695210053577008 0.0 3.925168964656244 3.171635394223145 0.0
119 1 9.997884296678079 16.847048667145856 0.0 -6.3317994938732705 -10.498827748356993 0.0
120 2 12.599168093003287 4.6580796545652685 0.0 -0.5969661399586023 -7.57622493912202 0.0
121 2 4.424009108465198 8.684580466092049 0.0 1.2741322170901965 3.9115981514301827 0.0
122 1 15.532170230956423 9.568328491062283 0.0 -3.324828617926271 -4.949543189645993 0.0
123 2 2.428007120124157 11.530556280096597 0.0 -1.1189766146604412 2.2571589613676655 0.0
124 2 0.3032032560843537 14.047493624306016 0.0 -11.965834910015266 14.11625741960898 0.0
125 2 1.7320177028365618 4.979190315023166 0.0 1.8905495277675533 -1.816605731126667 0.0
126 2 14.355707836276158 18.667911133005568 0.0 -4.071001254622543 12.533425287984645 0.0
127 2 6.806292783688626 9.626181105296519 0.0 -4.638907059236399 7.039929471847398 0.0
128 2 10.103152674164345 13.709718816303914 0.0 -3.330791303000933 -8.5669464026785 0.0
129 2 0.3482596539605248 13.219065701391848 0.0 6.083078684416538 -2.0700712447482656 0.0
130 1 12.236732214751179 16.239583328439714 0.0 9.689102515049889 2.8690458621471886 0.0
131 1 5.996694815605681 0.8517203190458411 0.0 -0.31973053696855835 -5.160080096436614 0.0
132 1 4.305424151688003 1.9858139384948388 0.0 2.849212897833181 -2.225194422623579 0.0
133 2 1.6125428702301374 11.015665986039368 0.0 -3.6696090423489056 0.6254543060405267 0.0
134 2 1.1935728993024401 5.687306816986134 0.0 -1.2425708851003532 -0.9631187838385874 0.0
135 2 3.4455694825372403 6.168180028198842 0.0 20.867082254735152 -5.081360483635379 0.0
136 1 14.652111916051524 8.45830254419561 0.0 -10.02729736850748 17.302319534196386 0.0
137 2 9.636923157630873 18.607009209245494 0.0 -0.19249602185312722 -0.5539226691860107 0.0
138 1 18.96609432232345 12.433609496724436 0.0 2.3652018611239103 -4.477364553707009 0.0
139 1 4.658502090209184 16.588850166742816 0.0 -0.9418427080599026 -3.3925967114529003 0.0
140 2 7.058530496758038 2.388235522556692 0.0 7.354935044545789 -4.314128770682348 0.0
141 2 14.42991638941228 4.05220037201049 0.0 -5.696192798784881 -3.68612746574158 0.0
142 2 14.917443286442497 17.921557685529272 0.0 -15.822606595958677 1.1724108090403245 0.0
143 1 5.337852169419787 4.581593867173746 0.0 0.6531376764636879 -7.14439186066479 0.0
144 1 16.54277307594206 2.9578664722301067 0.0 -13.22681240377205 12.978434999788034 0.0
145 1 16.101343790891022 8.06137599983598 0.0 2.703236376919269 5.276913372332921 0.0
146 2 9.804185863540278 5.143863324675031 0.0 -9.441680996044461 5.371493363474981 0.0
147 2 13.310280561416395 0.07527994168710597 0.0 -4.660085718396587 -4.612408406763842 0.0
148 2 12.491299085308377 2.476523899027693 0.0 -5.761935048903531 1.143825809874523 0.0
149 2 10.726189288111149 4.872997830124772 0.0 2.235966424372885 6.155529362621914 0.0
150 2 0.39860170232598446 6.292155074367234 0.0 -0.33836435340288945 2.253406911008258 0.0
151 2 16.722073065159176 12.215691253375311 0.0 -4.407071225159822 -3.853876461244754 0.0
152 1 11.909607245045478 19.59265715324278 0.0 11.822361438772628 -24.377328774283594 0.0
153 2 6.592442685249126 7.166203410226101 0.0 11.797855397456527 -3.6728680212615616 0.0
154 2 5.372961729387654 3.622929564580813 0.0 2.394435319775703 -8.731452758370574 0.0
155 1 9.494001523464947 7.880925465515567 0.0 5.748477347032214 -3.421334485187034 0.0
156 1 9.161514790327344 2.019478418626415 0.0 4.125860628031943 7.176232203604932 0.0
157 2 0.7110998395938649 7.0796166433447505 0.0 -2.784025590817661 -0.09076687565211017 0.0
158 2 7.345919240356394 17.014562464437272 0.0 2.135694209039392 3.5025444027414183 0.0
159 1 19.65375841224593 9.870134986268045 0.0 -3.065208389720196 -15.786972010674882 0.0
160 1 7.676891869413766 14.504107507842603 0.0 -5.010001091813863 10.170631922607015 0.0
161 2 18.520797087247466 18.79794520103967 0.0 0.424490125330116 1.5527938007419835 0.0
162 1 4.347294770158583 4.573833114905076 0.0 -18.482164032854975 -7.540885062692682 0.0
163 2 5.431846377085955 11.43841923570706 0.0 -9.381024408890669 3.3515157233851847 0.0
164 1 15.697279341585427 4.68374028113685 0.0 -6.947233832117616 -2.9172464458054588 0.0
165 2 11.521697462631975 10.548730478800456 0.0 -1.191614212141369 12.653275634655968 0.0
166 1 18.997663987299504 9.137849014185699 0.0 -0.17871062981795693 -8.321602748057805 0.0
167 2 18.13729126399338 9.239116385884799 0.0 0.12698583709983485 -2.90342605306443 0.0
168 1 15.023507114134212 8.182182722037089 0.0 13.70088233023424 -7.464875710325773 0.0
169 1 12.746344251724716 18.740742019222516 0.0 0.650405386686876 3.2473068390682256 0.0
170 1 9.81949312387064 15.417168954260665 0.0 -10.939686244072702 -16.763087928165238 0.0
171 1 14.11113312342928 9.685123519271 0.0 -3.154042085303136 -11.513454220230841 0.0
172 1 1.0275869494660155 17.147051909657236 0.0 9.585967176531723 -1.472794352619718 0.0
173 2 14.66392667391726 1.0834065049870407 0.0 -2.392458513628697 -6.581399263191543 0.0
174 1 15.916700501452649 10.360071883550134 0.0 14.381130274255346 4.858839058504791 0.0
175 2 5.314006264434239 19.41059480556026 0.0 6.842634079666561 8.048859870362017 0.0
176 2 4.496281895013393 6.616375945001146 0.0 -7.599623217314005 -6.364743938301158 0.0
177 1 10.284617000307248 15.05749889743052 0.0 -7.583206872113131 -17.929683954471358 0.0
178 1 18.01050625668502 2.328815117749004 0.0 8.573984114563697 1.1482699888380123 0.0
179 2 9.321842230927427 6.405580870604139 0.0 10.799270152578401 1.7744700621502454 0.0
180 2 14.328743953707988 13.10332239075374 0.0 0.2017904327166706 0.10697651326540993 0.0
181 1 19.56576393440302 15.629314636542894 0.0 29.14121086616535 9.558983298990782 0.0
182 2 16.74612119282237 19.588953407528187 0.0 -9.193735867206977 -9.450846764439781 0.0
183 1 2.855171224512304 10.635174700104738 0.0 4.285388479259651 15.053580200817368 0.0
184 1 17.718765819918552 1.6292865875500313 0.0 22.443891908750235 -13.073722878868098 0.0
185 1 7.326357301023579 3.137470862680263 0.0 4.000140907022813 2.1078625239269937 0.0
186 1 16.264362160440843 1.574721932212456 0.0 16.42768646321064 3.388577042744956 0.0
187 1 8.539236463909877 1.9952403002516708 0.0 -16.876078700135636 1.1313777088149939 0.0
188 1 2.375067881539286 14.113494071074184 0.0 -3.1971703967039957 3.988703657458675 0.0
189 2 2.4715621850437355 15.150087315814456 0.0 0.8868627321301267 -0.4313838254181239 0.0
190 1 16.14831988638118 4.193115576966321 0.0 -0.24546932269396127 18.97401134044294 0.0
191 2 3.4508784150699015 4.509546340071746 0.0 -6.538146160391928 -1.363857234248545 0.0
192 2 17.17301878030645 14.524202619768305 0.0 7.462084916083751 1.6279868007676954 0.0
193 1 18.62835734841139 13.982245792619437 0.0 -12.80498547910614 3.4347968220080807 0.0
194 1 8.073487663350216 2.138642239160507 0.0 10.169844917870424 5.062251566611194 0.0
195 2 7.77382931455951 19.294494434425083 0.0 5.6414277516215074 -10.430304713309798 0.0
196 1 16.31981985161424 9.597295846147478 0.0 -3.729629695244126 -5.601076140279696 0.0
197 1 7.12847201958926 8.867093913978033 0.0 -3.4991897634873173 -3.3802032618035804 0.0
198 2 10.87880771985755 17.736190322805996 0.0 5.724584947336649 4.6722078764811465 0.0
199 2 16.33495966335209 11.1095171810621 0.0 9.629671472560815 -5.459687182501372 0.0
200 1 17.240922867572817 17.418804541315485 0.0 3.615809186618661 -6.037047121738991 0.0
201 2 16.48367610036187 18.605645484303388 0.0 -8.182720022325029 -2.8652654905069075 0.0
202 2 2.06378949977871 2.8987667463175635 0.0 7.584986076577754 7.690461287794486 0.0
203 2 14.075763956418259 14.298619786812582 0.0 -9.649195592757541 -5.935362588733876 0.0
204 1 8.56695267393265 7.589149091241351 0.0 -4.417390601626573 10.780602816960569 0.0
205 2 7.417095693086502 10.576144698670799 0.0 -6.756905295418905 -9.76948394619832 0.0
206 1 16.70795194791215 1.11522234788333 0.0 -10.70713267656445 12.049008112833196 0.0
207 1 10.161893021653999 19.523629308532808 0.0 2.085873186525858 -2.8645025040435446 0.0
208 2 17.461191136898 8.38875721213823 0.0 18.946102704254972 3.5809707546802816 0.0
209 1 4.790537514081897 18.793255403494577 0.0 -7.693736971228853 3.2973788309513594 0.0
210 1 16.464485800963285 10.22640096212795 0.0 8.843264572553482 -6.701533666858477 0.0
211 1 14.682367293103836 2.9987045309921037 0.0 0.9222048866886287 15.526943702375378 0.0
212 1 19.48875924188669 19.348112866310387 0.0 -1.7290775648642156 -16.17810113083664 0.0
213 2 11.666368628600814 6.155065231109039 0.0 0.13755564596733436 9.140442092044458 0.0
214 1 3.413019352882297 1.3243673200039394 0.0 12.558982570940701 -0.9022811141633298 0.0
215 1 11.292974895279366 4.0303369747525375 0.0 -13.03854946902661 -3.098841232099353 0.0
216 1 3.442491096906754 14.04476531977409 0.0 4.791185714801891 27.926365658627898 0.0
217 1 1.1136874739186613 0.5448472813142519 0.0 13.23646322455688 9.308093823866583 0.0
218 1 7.271751416314833 4.006708547533901 0.0 10.973863837741238 6.690159560299216 0.0
219 1 7.4619189584772485 11.570529435489755 0.0 10.970165923707944 -4.94823436103625 0.0
220 1 2.87262797967748 0.9423581728988576 0.0 -2.189487383152386 3.136906450271009 0.0
221 2 2.98554511921903 9.748868882188432 0.0 3.846574613460864 -20.992328834188605 0.0
222 2 2.4956712677397253 1.853732060332767 0.0 1.3239414927851176 -13.569504547867151 0.0
223 1 5.656036589714267 6.698419912216084 0.0 21.86427379368241 1.9473226142814846 0.0
224 1 1.4758347659454707 6.75838786605477 0.0 7.5131072391174785 10.042137905176553 0.0
225 1 1.1655236670147138 16.388139515999075 0.0 0.2875054092608482 11.411148522173757 0.0
226 1 15.551490197193537 7.64453869318836 0.0 -4.73520072740494 -0.865523777097454 0.0
227 1 6.511504147918154 17.056500951391676 0.0 16.769357785961013 0.04758639075913551 0.0
228 1 0.04055174017208466 0.10016785195789116 0.0 -13.428478646663287 0.5220961771825983 0.0
229 2 19.6229667520752 5.435960122921264 0.0 -6.669968073926024 1.3739333517543955 0.0
230 1 14.942462436528096 15.51673141269134 0.0 7.896454074262108 -5.244452885748331 0.0
231 1 8.597706957939776 8.115154399624068 0.0 8.072608381408001 0.2910569993366836 0.0
232 2 4.17044513341719 14.330473423820164 0.0 1.9588078389630463 3.1846875880304113 0.0
233 2 6.462185549083065 19.354957304442685 0.0 0.606154539223381 -2.8149002119644644 0.0
234 1 5.668769642957368 12.20152254875094 0.0 10.907793270594984 2.4021182872768505 0.0
235 1 16.61874046307047 7.695422124314431 0.0 -7.297349437017096 -0.4346669147089605 0.0
236 1 12.591395476610499 18.014135770295436 0.0 1.030870385084874 13.352808380537407 0.0
237 2 4.197518359745581 3.3114555073790273 0.0 6.771272234737432 8.431009514111578 0.0
238 2 11.904849057585533 3.27227387238393 0.0 -7.785153903439929 8.40955580068951 0.0
239 1 16.31888307313072 14.97845603358065 0.0 -10.498991013332313 4.028106028039873 0.0
240 1 1.5223498171146375 17.65200389625836 0.0 21.192027250290447 -17.282221056220934 0.0
241 1 15.492081219679001 0.002408412643220601 0.0 2.0616073553213594 -0.6359479044016627 0.0
242 2 0.4098126185764105 8.982346441945715 0.0 10.69206900460872 -16.86054575787529 0.0
243 1 13.683982326953041 2.5938462453952846 0.0 -1.9921067629381504 6.050918077836913 0.0
244 2 3.483206763791762 8.365764825501785 0.0 2.7073518928368405 2.7466932780922697 0.0
245 2 2.145011234789969 9.332380105149587 0.0 -2.646799195815112 2.452045193879926 0.0
246 2 12.239032173635078 13.497642192064344 0.0 1.0841169429578361 1.6988626531516107 0.0
247 1 1.121195113653631 19.258196397727897 0.0 9.58886281150429 -15.145926008658575 0.0
248 2 11.862746734657723 17.937115470966493 0.0 -0.16023585678093352 -6.095896571535998 0.0
249 2 12.692128189872749 12.579334520014024 0.0 5.1147596200432615 -1.9292088531444649 0.0
250 2 2.5052112501017425 6.047970729173 0.0 5.592985324069668 3.6717269145896725 0.0
251 1 4.014179331305513 18.860384247325744 0.0 17.75884597785763 14.998920451123439 0.0
252 2 10.156998914548696 4.007987549138146 0.0 -7.439496331877845 -0.6373823549737206 0.0
253 1 6.656468181140925 11.236651635510205 0.0 -13.457131702965027 3.708614592283624 0.0
254 1 19.674934895787437 15.097277583479713 0.0 -5.216670993248205 8.741886806850175 0.0
255 1 13.671964037247255 1.9615928519762145 0.0 5.029603898063947 -6.2549282134014 0.0
256 2 10.36726559071288 5.890710301016674 0.0 -3.015901769549393 -2.5862537003256367 0.0
257 1 6.28916724253679 1.9245652921998533 0.0 -11.811068870508455 3.9416863275043528 0.0
258 2 4.38763880632225 17.696789602022122 0.0 -9.088919042468698 -8.594781732017106 0.0
259 2 13.167543026220923 5.4577565829423555 0.0 -2.9065420874435666 2.23979053498703 0.0
260 2 13.724161620746877 17.376940732027677 0.0 -7.669606109931883 2.904182914959748 0.0
261 2 18.00602235596484 11.165964875418489 0.0 -1.1136652093847244 5.128468435639323 0.0
262 1 15.255494635661325 10.300350209608133 0.0 -3.485543796140494 17.857747083078976 0.0
263 2 11.941915353459976 1.6951836428795934 0.0 -3.540296429342844 -0.7696456655335645 0.0
264 2 9.202430131707095 12.674309403507952 0.0 -1.8475304414032623 -12.59255608302164 0.0
265 1 1.8953807878645283 13.965475886589468 0.0 0.316547951309793 8.003497771210315 0.0
266 2 3.511594463418515 16.917317824627958 0.0 -9.311362619708794 12.410211674913322 0.0
267 2 11.073287474975219 2.977048671830398 0.0 0.2749965575819688 -2.138321628045554 0.0
268 1 0.2818995378277314 16.380032788933466 0.0 23.3805840965827 12.660537277935132 0.0
269 2 2.5367577192753465 4.310789749369021 0.0 2.0572292573236783 -7.541212817836562 0.0
270 2 1.3806128843721783 12.912032437601594 0.0 -6.036498700780439 1.816599392098395 0.0
271 2 13.42197580551975 16.08659496211184 0.0 3.99093612280807 8.83559813546795 0.0
272 1 14.423801434992383 15.49220265869395 0.0 -16.460698224283334 -7.924039566158901 0.0
273 2 7.9714750113427355 13.293566698519005 0.0 -1.096676588468664 7.455062381208983 0.0
274 2 18.348033299638487 10.34311364116748 0.0 -2.3429500728509955 5.965880311788849 0.0
275 1 12.641712661836035 0.6626772216036176 0.0 3.0963395732219454 -1.090017146352376 0.0
276 1 6.185770964039221 2.6633563680000587 0.0 8.370347546620222 0.8735553674703881 0.0
277 1 16.908078151825812 16.5861129965487 0.0 8.915682236077956 2.8007676727445268 0.0
278 2 4.39727910899448 7.6895408782987555 0.0 -6.252404707778826 -3.2070851484817218 0.0
279 1 0.6729492953993857 4.723167324494956 0.0 4.17880810512394 8.28287615316691 0.0
280 2 3.1966588749349447 12.452103367332692 0.0 -12.316282165397274 -8.959618598610504 0.0
281 2 6.702502624490462 6.22131568277903 0.0 -10.653138530331791 -6.184587533447344 0.0
282 1 16.916161527401336 2.314213692424815 0.0 -11.378240374562637 -4.618831097223472 0.0
283 2 10.93708324929514 18.638500345302 0.0 -3.71213907293537 9.41466456196553 0.0
284 2 11.287137271832814 8.491682360428099 0.0 -2.6392110353262965 -1.7361978871132255 0.0
285 2 15.63231686860212 13.94389352135222 0.0 -3.1758751825837153 7.546526260650953 0.0
286 2 15.405819556126891 13.022133806900992 0.0 8.64875577997189 -0.0070848682976929825 0.0
287 1 15.261540650768241 0.4237593206740355 0.0 -3.926475148558071 5.3937241176130435 0.0
288 1 9.944689335524883 1.6052744857251744 0.0 -10.247084589712285 -5.341102084447469 0.0
289 1 11.593433657081972 16.95448545717033 0.0 5.635940365397161 0.1684478252476614 0.0
290 1 0.9162607562614933 15.03853508146655 0.0 3.546819340789237 7.874307128099539 0.0
291 1 16.117437504125217 6.7247377820777725 0.0 13.231616425664255 -6.199775918219062 0.0
292 2 7.002497754880067 18.48240677092599 0.0 1.8391416594235417 -3.88993811855372 0.0
293 1 8.042195086848375 0.3219198904031059 0.0 6.018496745896662 0.3709613325997753 0.0
294 1 6.0519619879243916 13.481346009742973 0.0 14.985583821428568 5.999146315947208 0.0
295 1 3.7698190294775054 13.429122281634287 0.0 3.1431351466411077 -5.843606697553119 0.0
296 1 14.145340322568318 1.9652654655985535 0.0 1.386297189548874 2.1817163620318256 0.0
297 1 5.847516723920206 6.050353479808127 0.0 -13.773552410178414 -1.4878456509328213 0.0
298 1 14.634569517050648 13.87060092741825 0.0 -11.02880787630095 -6.1142832041089745 0.0
299 2 10.946874689368123 1.5516289936072183 0.0 11.71917776142884 -11.158354680079952 0.0
300 2 16.13916787681717 2.2943358265251588 0.0 -9.026890495040703 4.218149176707398 0.0
301 2 13.2630974268832 13.495888326243744 0.0 3.3618517849475995 11.901139695664204 0.0
302 2 11.892636889034149 5.323735584327293 0.0 1.6680614231406714 -1.7126488307513954 0.0
303 2 10.660485162527277 7.88674738365899 0.0 5.414056468714847 1.7724965630746095 0.0
304 2 16.217119631127886 5.440353195017398 0.0 -0.6313427891582535 -3.529113746162483 0.0
305 2 4.884152713042963 2.3830667985994163 0.0 10.474733689176748 -10.780090819584657 0.0
306 2 11.867580687203846 0.7957447844316191 0.0 -6.330350372335791 -2.5581973966658715 0.0
307 2 1.969480993056847 19.128416525042365 0.0 -4.212103914948838 0.7892071850610967 0.0
308 1 4.5408708999195095 19.188195357813562 0.0 -2.27288119531499 4.950762203587511 0.0
309 2 9.102367365826842 5.610458670762196 0.0 -0.3272001749747291 6.504593569829537 0.0
310 1 19.69062060621356 10.564988984198092 0.0 4.793122537733503 8.714470865379326 0.0
311 2 18.734397528320876 6.741851285469204 0.0 11.826133935752237 1.2024958349088053 0.0
312 1 13.456718737567869 0.9869647353683884 0.0 -1.0130546373672995 -2.0662281736791392 0.0
313 1 9.081487082329287 10.369659235408218 0.0 6.4025768674565775 -9.221352152581934 0.0
314 2 0.07123430539094353 8.08239863917991 0.0 2.5741472519633657 -10.897586719404995 0.0
315 2 5.4737316412541235 7.53303313053232 0.0 3.779239694147984 6.117338091804754 0.0
316 1 8.218910364323099 14.156734504659708 0.0 -10.195348444264871 -10.698648579357698 0.0
317 2 9.323354169429765 14.615684591644339 0.0 -3.2464377405081337 1.695330246623255 0.0
318 2 6.164837580910652 8.700917065093071 0.0 -0.2847666395584343 4.654182596477277 0.0
319 1 10.503320484658976 11.123589721820894 0.0 5.201570189716871 7.679150186659185 0.0
320 2 7.145574863737298 13.78558869487204 0.0 -1.0455980956413549 1.6436763542198676 0.0
321 1 3.738629121756849 15.935670490338843 0.0 8.526223690745462 20.71100784643459 0.0
322 1 0.5578218323941183 2.9552504156623773 0.0 -7.036766063969773 -15.468154047722921 0.0
323 1 1.6890131631557155 16.953507352573244 0.0 9.483341516535011 5.95211177961046 0.0
324 2 10.344407225891429 0.5550678833288976 0.0 9.878519414398028 8.64841329060689 0.0
325 1 4.37542817527532 11.548506004591612 0.0 5.396548367870698 5.684415777414001 0.0
326 1 6.260673646514651 3.733901851090478 0.0 7.6557533162754385 9.323126338143371 0.0
327 2 0.8859840179648394 9.920506593205417 0.0 2.346643445615751 5.205018622323761 0.0
328 1 17.368556041541304 6.23221210354345 0.0 -13.522371890590817 -0.5958159982180152 0.0
329 1 9.328380299068602 15.410711243841087 0.0 -9.296571200927714 11.1553226593516 0.0
330 2 5.816006859190953 16.416524219167247 0.0 0.6708546684246849 -3.162673158857875 0.0
331 2 13.368199169488074 3.254867848729809 0.0 -0.247594574752569 7.383178587582441 0.0
332 2 6.711048756831684 12.433091422141954 0.0 5.059131271210612 -6.245426545260676 0.0
333 1 7.473271263684496 6.575569407673272 0.0 -5.39422506254621 -2.980470118825149 0.0
334 1 19.718559031792797 3.3551509664033707 0.0 -12.315737093859472 -2.622741370187487 0.0
335 1 5.35247424907476 5.6432841686109585 0.0 -5.260216606191899 2.4628462544896497 0.0
336 1 2.553925969777953 8.753511649570944 0.0 -1.1611107931285733 -13.580789468754952 0.0
337 2 8.834634863885336 4.584803679313535 0.0 -0.30219592772260256 2.6149468490337173 0.0