ITEM: TIMESTEP
0
ITEM: NUMBER OF ATOMS
400
ITEM: BOX BOUNDS xy xz yz pp pp pp
0.0 19.7609 0.0
0.0 19.7609 0.0
0.0 10.0 0.0
ITEM: ATOMS id type x y z vx vy vz
1 1 3.2305281920468083 8.079995584668428 0.0 -4.8663822260688985 -7.712311344191609 0.0
2 2 10.17281862048416 3.0181409694972405 0.0 -1.9981015519239946 5.008800633502868 0.0
3 1 0.41592348151920033 18.11978973773046 0.0 1.5708904080654813 3.9874965951127987 0.0
4 1 16.306928712211718 2.7900073056412142 0.0 -4.786024536263156 0.9644414161514933 0.0
5 1 0.891497751790017 11.960408292091333 0.0 13.871546837599764 -11.191561987324082 0.0
6 2 17.0108864375601 1.7903930494212634 0.0 -3.682972559254096 -4.174411449083757 0.0
7 2 6.5290239265324335 10.588675526191832 0.0 13.829236967300847 -3.0329903451547473 0.0
8 1 14.967553410416523 10.690705399497562 0.0 -10.598045870135477 7.862399546293217 0.0
9 2 10.300497575070244 8.772091212470581 0.0 7.27550413734899 -7.729595662443117 0.0
10 1 1.4144328411730902 3.8955036609697538 0.0 7.890799545377929 -5.396928870701188 0.0
11 2 6.139530041577815 17.310811677709324 0.0 -8.301587956568376 2.2534891441791385 0.0
12 1 3.643322626967125 18.09202101821478 0.0 15.48800961314279 4.299910776194769 0.0
13 2 13.124329278102383 9.489636553290616 0.0 0.38432935295711634 -9.107688830325738 0.0
14 2 2.3428023293902482 3.559673248026724 0.0 0.3794336532939314 10.579135909826471 0.0
15 2 0.33884119518790046 9.9357100985973 0.0 4.873835556978451 -5.622535806937326 0.0
16 1 18.855232122022837 13.376044174691808 0.0 4.940198094058749 -5.990780419391696 0.0
17 1 11.496701216712365 3.7461359621491495 0.0 -12.600681570905804 -15.99954727932024 0.0
18 2 9.778385397729462 9.604648471107152 0.0 -11.092121195898747 4.247035530737418 0.0
19 1 6.7787770043512205 19.276529948455263 0.0 -5.277121219081598 3.176832609891852 0.0
20 1 4.176105030001786 14.71920153147786 0.0 -14.721349757787861 -5.781425076610171 0.0
21 1 14.07093345995969 6.776989130738025 0.0 9.914607799746893 9.546209976213456 0.0
22 2 14.57523946574699 12.65640701583341 0.0 1.0906297637011704 -0.6593789555026779 0.0
23 1 15.707089680640463 19.44181697031076 0.0 -6.674569347797144 -15.028670470123787 0.0
24 1 14.369169017657914 18.05369624235714 0.0 7.8522922677083615 3.7325465134152815 0.0
25 1 11.904978926168392 12.982890358270739 0.0 10.11504969548375 -3.9861130167716694 0.0
26 1 8.071006715917635 16.07120202031283 0.0 8.591496751926307 -7.901119349424786 0.0
27 1 9.74955888003381 4.673027538488131 0.0 -6.5579537683380105 6.201612532947461 0.0
28 1 9.881917533898083 10.785792437082062 0.0 -0.42393822714610563 -5.124209098162006 0.0
29 2 3.219801299765961 4.11540459059884 0.0 0.6861350383439353 10.276388219141312 0.0
30 1 15.352436751026541 17.71714513705768 0.0 8.025361345291575 -2.8541525482290555 0.0
31 1 13.545110400531149 5.264441428069672 0.0 0.47045697678028675 2.359290192914681 0.0
32 2 19.160272512572263 3.634811585600283 0.0 2.4370558115071708 1.8007188663137328 0.0
33 1 17.507354002283112 6.864530524945269 0.0 4.601121048185204 1.5128620034379667 0.0
34 1 12.43618815210966 12.282124778783638 0.0 -5.639949372753866 -13.1367932950185 0.0
35 1 11.186555845201068 14.737219028784336 0.0 1.8341939480678937 3.057808320222325 0.0
36 2 0.7174194697860642 3.281623229165296 0.0 -1.3181205814311396 2.5926424001875965 0.0
37 1 5.580831055649397 12.21605906586009 0.0 3.787930636798116 -5.347211668644441 0.0
38 2 6.948953449377653 17.603910578792195 0.0 -1.0662291359690443 -5.632376984666793 0.0
39 2 3.71426133713248 6.873095303158045 0.0 1.8196152697122259 13.380888409546989 0.0
40 1 17.21671733201261 14.129936670673375 0.0 13.12281603192129 -1.0231186325039499 0.0
41 2 12.625131361192043 18.56762301395576 0.0 -8.188790641815844 1.5230386621984024 0.0
42 1 16.059569079881484 17.070320577073904 0.0 -5.209242002863911 -0.8417357618290758 0.0
43 1 5.4999643981409125 4.100404318222102 0.0 -3.630445561088226 -1.6644928956165534 0.0
44 2 12.467140846317976 19.58505064626212 0.0 -2.2540382622359125 -8.360014745156201 0.0
45 1 16.224635553533147 8.703930383254347 0.0 -1.6970316547418511 13.42279128727452 0.0
46 1 9.477341498976632 5.9715129031915195 0.0 -2.4680238214720327 -7.425158373428957 0.0
47 2 1.4245396550158544 10.260395869922139 0.0 0.8308283975236236 5.7070801786392265 0.0
48 2 16.717764577908255 9.677940813196017 0.0 -1.464445062758056 -7.058993751242353 0.0
49 1 1.7819492038859717 11.529448110808554 0.0 6.318848520093349 -4.094463240465638 0.0
50 2 1.500533978056068 16.86476816843993 0.0 0.9448499317345458 -2.9533471064824455 0.0
51 1 4.455451391994141 10.637164759775908 0.0 14.409747728535514 10.361937796866581 0.0
52 2 6.77754891585539 1.0130883876011738 0.0 1.619397555364658 -1.0519771492746763 0.0
53 2 16.146933932122057 11.306320258640834 0.0 0.02073023538770611 -1.6119459894112942 0.0
54 1 3.435814186119218 12.658011316298305 0.0 -8.49115602914206 6.2178846710481155 0.0
55 1 7.923755706058522 15.190384865440304 0.0 15.85822882130117 1.2452336273428841 0.0
56 1 7.170519403498706 2.1550185994886375 0.0 5.130895634805659 -0.769565412053609 0.0
57 1 18.067406465033162 6.525703599407501 0.0 2.464915160265584 5.7308160350506165 0.0
58 2 2.9950652351132336 16.625771769072596 0.0 1.6410659430715264 11.910767612709131 0.0
59 2 3.4351968678284575 9.63485769260749 0.0 5.621708266613126 -11.353643749153159 0.0
60 1 3.0334349735430544 18.524532238583816 0.0 -17.742288024030405 9.533278541713727 0.0
61 2 15.075482703874723 6.583763982525159 0.0 2.679321255297817 2.3696651982557384 0.0
62 1 6.227984381648269 18.22019660132655 0.0 7.868631992985594 -13.784856725320102 0.0
63 1 5.6596308792214085 19.596246844634894 0.0 -5.469914721148356 -5.894335468781365 0.0
64 2 7.466023639410013 0.1613356553468487 0.0 -3.6841408801742013 12.064947847151224 0.0
65 1 4.403746837372994 9.567554008128857 0.0 -6.004216551233542 -1.6179724835889573 0.0
66 2 17.105034459603278 15.586189831975616 0.0 0.02728578763408842 -0.42429513553645465 0.0
67 1 10.400217460649232 7.780043025736615 0.0 4.395004704333687 -2.0731172838215035 0.0
68 2 6.5869889867490565 6.84570429464251 0.0 -2.9752931163052114 -8.111999871557831 0.0
69 2 1.54283802850428 7.032116614049835 0.0 -3.0911540730132177 6.070759141713819 0.0
70 1 14.723162228843892 0.45276279537168423 0.0 0.05961146014551674 -3.54955845874269 0.0
71 1 6.496128658431104 9.487419921776825 0.0 4.824032001100187 4.702379504629756 0.0
72 1 6.494378778905818 18.656291727262065 0.0 -14.549600717083694 -15.992350053939147 0.0
73 1 6.03629461336168 15.136988820271673 0.0 12.826932326158214 3.684758660219138 0.0
74 1 8.83724684037345 4.021687753568479 0.0 10.306464751562828 -17.734033071040482 0.0
75 2 12.250627572347948 10.16375481814838 0.0 2.7272377106899763 -2.1392554939428994 0.0
76 1 11.876956030596917 13.494831800837433 0.0 2.37240083059499 11.103641446527075 0.0
77 1 4.814624491559822 14.964963643987456 0.0 9.309852340747865 13.749364684749166 0.0
78 2 8.017950864307 3.7802745843136276 0.0 -7.181990286597131 -8.566939392206491 0.0
79 1 1.3426604690784367 19.385887053881394 0.0 -4.87895834112203 -1.4727463526641835 0.0
80 2 16.60921740409708 19.139429416610945 0.0 -6.4151665363532056 0.1528132948805755 0.0
81 1 0.49345342548864085 5.575011477819611 0.0 -8.643315153567537 2.7899015909136033 0.0
82 2 18.387666490082577 7.862848136149598 0.0 -3.83065141778776 1.0085373227268535 0.0
83 1 2.2656999427260933 0.3167112804035628 0.0 0.9793920916619318 4.576292003458524 0.0
84 2 13.214124872523627 12.280789392642705 0.0 4.034753596937475 -5.052399004064853 0.0
85 1 6.410219625507619 8.902230235755779 0.0 -3.7986272376686885 8.512849859160985 0.0
86 1 2.276227838287868 17.534192063619976 0.0 -5.653210827095344 -1.1267945846624063 0.0
87 1 11.996112325094602 3.7766852128246002 0.0 3.3340261665382287 6.911889707628722 0.0
88 2 19.411851737284444 17.230572147535366 0.0 1.9388155210047382 -4.897657957007798 0.0
89 1 9.832015253050638 11.266786270787474 0.0 1.644295925327497 1.2118828415902216 0.0
90 2 2.0486209406300118 14.353646865160936 0.0 2.475449239459198 -5.328179208692315 0.0
91 2 19.03284374102164 14.271393871004763 0.0 4.177887429433075 -6.017751617744305 0.0
92 1 8.634527409295437 2.480963076571801 0.0 7.475095750961614 1.9077160591997535 0.0
93 1 0.9632191674791268 5.748588843758024 0.0 -0.5962739439841457 -13.516164547985142 0.0
94 1 0.15992868104289454 8.81211076813374 0.0 -17.615991150237928 -0.7103798829006291 0.0
95 2 4.6231407758933285 18.299972683093007 0.0 3.9053610641097634 -1.5397757113729513 0.0
96 2 15.518099886166251 12.096619783414711 0.0 1.1669374007367754 -3.313110671156655 0.0
97 1 17.659959706180178 13.442902154676439 0.0 6.756432299105985 -2.4354250302268796 0.0
98 2 17.980494018244322 17.070521212321438 0.0 -5.346065747512543 2.199005466854323 0.0
99 1 15.035028310809722 5.59868832199217 0.0 5.049510125798511 -2.9777366169372077 0.0
100 1 8.256892942655995 9.914273264103272 0.0 -9.068398764672379 -1.1990852029058026 0.0
101 1 17.03341446040995 6.203286552256039 0.0 7.59073277161311 9.358417359995363 0.0
102 1 11.420486443607956 0.6296177899784814 0.0 12.13745687080062 2.1728108183925072 0.0
103 1 10.250096216497889 11.88350524515986 0.0 -7.470713193363664 11.785533803919058 0.0
104 2 2.746009782191613 10.624451417315655 0.0 -6.927001836160011 11.657411133991005 0.0
105 1 10.099211060098673 17.914013708758354 0.0 21.567031208699202 -1.4859588349746047 0.0
106 1 2.4368262163889085 9.450195151046984 0.0 -11.024061834642593 12.519422560629073 0.0
107 1 8.000686661760584 17.287637430096137 0.0 -2.4427578174946887 -0.5696524134483897 0.0
108 2 13.743716655931316 1.2122342710656866 0.0 2.5136691780858604 2.5430121638290712 0.0
109 1 12.21707076616357 0.5499957669216161 0.0 0.08346593842905752 -4.081966527277917 0.0
110 2 4.748648919133389 6.220640703584339 0.0 -2.054104172671589 -2.034837960530753 0.0
111 1 12.6913049983248 14.263132875035474 0.0 6.369421360319503 15.558616688465337 0.0
112 1 15.89708323412755 3.0043921088287933 0.0 -12.012049730454715 -3.927594007123455 0.0
113 1 13.784160913638651 9.981591993674297 0.0 13.771125211585332 5.826846072436051 0.0
114 1 17.544280900432142 12.841364786678659 0.0 10.575596290325002 -0.32188148319449933 0.0
115 1 9.379982362247139 11.351304197962428 0.0 6.550379644933762 0.09469181240489638 0.0
116 2 16.23032717745046 5.301075674158638 0.0 -3.582665315304048 5.362723139089679 0.0
117 2 5.724915515339661 1.0506105540422719 0.0 1.192127919721904 4.889445831381439 0.0
118 1 15.338873379451059 16.752513136582238 0.0 -5.846104786216387 11.756735248037428 0.0
119 1 14.917836339865175 4.257734835758882 0.0 11.760447304229421 3.66504422903764 0.0
120 2 17.78370691813636 0.1720588139029721 0.0 0.05956033743359307 -3.4454609585204987 0.0
121 2 6.495404733272104 16.06955010464915 0.0 -6.4064498331167705 -1.847913484944771 0.0
122 1 5.160075120892743 3.4009964932750134 0.0 16.648024665085273 6.416885651379465 0.0
123 2 6.904728992788185 11.68856747002811 0.0 8.30105648827156 -2.9696434735637087 0.0
124 2 14.390154910090612 11.677331112694246 0.0 -1.6816555356989946 8.4962228632818 0.0
125 2 8.023286378422023 9.020593757915485 0.0 2.1962483572872054 2.7265565616525214 0.0
126 2 5.957147455339739 2.123254190054774 0.0 1.8753276824335117 4.3618660546428805 0.0
127 2 8.361899183725088 5.361737407458318 0.0 -9.67440205106664 -2.6419882924207303 0.0
128 2 4.888974805177965 0.9254218139468898 0.0 3.566228409309069 -4.624031490171968 0.0
129 2 6.475686411304738 12.675022945401896 0.0 1.0720866048053823 -5.305709900308907 0.0
130 1 13.149620045676317 14.870303515942794 0.0 -18.56807771802183 3.459251711479033 0.0
131 1 15.521623729254697 2.683054285600911 0.0 3.075512035374148 -2.0975629099365696 0.0
132 1 4.989578030425639 12.882510741154164 0.0 -2.4169696713065165 -19.693864795546407 0.0
133 2 7.437016917398689 13.04074174786244 0.0 -6.896502669962052 10.142309431164396 0.0
134 2 16.86616778913857 16.91638852541926 0.0 -5.432733349492658 1.2193532669812037 0.0
135 2 9.697564257159012 7.9307080344313015 0.0 8.3789245535999 -6.376498619247398 0.0
136 1 9.470353757694951 17.197142895207538 0.0 5.5892976506427114 3.771621326933627 0.0
137 2 4.352848824762408 3.4821169855164267 0.0 7.709284846445313 6.023740520706237 0.0
138 1 8.717226049521038 4.474711361486359 0.0 -1.834398960424096 -0.6805743147110539 0.0
139 1 11.419996357771227 17.68375209449721 0.0 -8.719141634386489 -6.669134996460823 0.0
140 2 5.953476762497802 5.728453375266135 0.0 -10.094647009887195 3.640624688988427 0.0
141 2 6.46067164816114 2.7889605786290015 0.0 -2.170123267231163 -0.3697048076223465 0.0
142 2 1.0584773007254966 9.284295430727042 0.0 -1.4972681143394007 4.375689943032031 0.0
143 1 12.07844381169379 7.261795067784695 0.0 3.1442301877386027 0.6863410976478143 0.0
144 1 2.7054341388328047 9.040515856068627 0.0 4.440949865738396 0.7879062207820828 0.0
145 1 1.3373288695897927 12.511229860899585 0.0 8.34238762162863 7.428601411552902 0.0
146 2 0.6211645397257513 4.835005308362346 0.0 3.6689701612818064 -7.792362961139349 0.0
147 2 2.4141049601139226 13.527260441417624 0.0 -7.8870143961246955 -2.2786942842084836 0.0
148 2 3.975688985748789 5.928246176797599 0.0 -0.9929362136524038 -4.67560075442683 0.0
149 2 19.27296206264635 1.5084018573261275 0.0 -0.3073862146559003 -1.92791015530371 0.0
150 2 4.08555886306846 17.096396227086462 0.0 -12.39957087141085 2.061291658717705 0.0
151 2 7.820431472505973 7.419927330888867 0.0 -4.707550169898357 0.41231208740963704 0.0
152 1 14.83314260442525 8.953301598692928 0.0 -6.799800010182698 -4.211511956032427 0.0
153 2 0.5352019814850881 17.029216015764618 0.0 -2.780575108816436 -2.9889842950088696 0.0
154 2 16.591779671772635 12.848009981830863 0.0 -7.2929554287995515 2.824630564344382 0.0
155 1 1.796219311274568 0.5378453708758193 0.0 1.1858030926032637 0.09582172548102187 0.0
156 1 9.261761689748313 8.72261018226171 0.0 6.397503035897069 -2.1481397205444646 0.0
157 2 18.85968092726824 0.4534803511777444 0.0 7.446757723769545 -0.18393471372364606 0.0
158 2 19.69117418045342 19.29456884833756 0.0 4.722569999744612 -3.430337190382089 0.0
159 1 6.508372210428269 15.165300716370282 0.0 1.5249159177904918 -11.605087644628776 0.0
160 1 10.693970288124866 3.8532253097567057 0.0 -1.988340443336635 -9.16743897518106 0.0
161 2 2.363175513232739 7.375514419765943 0.0 -5.439480297490535 4.581255334730163 0.0
162 1 18.514935291134172 11.06481485676423 0.0 4.408098491225937 -7.282504779750652 0.0
163 2 3.607268632499934 10.699595909655413 0.0 -13.479986683299273 -3.9790805547921564 0.0
164 1 7.775328921156581 16.69718693635374 0.0 5.528518919161657 6.462693421518775 0.0
165 2 9.821722955298137 13.255914391536807 0.0 1.5071067476810838 -4.5118792226055975 0.0
166 1 1.95238332491821 11.055126081902436 0.0 3.214944461276399 -3.084569174360477 0.0
167 2 14.146756892069467 2.6117364207450873 0.0 -0.461237075719482 -6.117393132623997 0.0
168 1 16.751668942990037 3.591118014367199 0.0 -9.879422240458426 1.048796590512094 0.0
169 1 12.849968498732638 15.310586605627694 0.0 1.9234248872639348 19.24470773406707 0.0
170 1 13.830049703427166 14.576994118285326 0.0 -9.60676787936459 -1.8854318715044864 0.0
171 1 1.6077537547119367 1.175628198551194 0.0 5.270207827666247 15.714366918083268 0.0
172 1 19.270768448052586 6.930844907305835 0.0 11.88453930643518 11.268928662849602 0.0
173 2 5.382191648414933 13.886506270120554 0.0 -4.280033541570547 1.8359624890402917 0.0
174 1 19.499855734213057 13.557958248146454 0.0 2.422819239298861 10.167245511446108 0.0
175 2 4.802899458107411 8.683139721171722 0.0 -0.06416979799626546 4.837992919158871 0.0
176 2 6.840030627542267 14.15013837842861 0.0 0.13272910239658997 3.0451091708396585 0.0
177 1 14.850060099930353 19.517497193749815 0.0 1.680898588798457 -0.38860449227632954 0.0
178 1 14.217708198536664 10.220691112151453 0.0 5.582685967257181 5.45392982694772 0.0
179 2 19.055669043126045 8.785357279766659 0.0 1.172602051565118 6.9329613169854785 0.0
180 2 9.013132227440819 14.829430097020511 0.0 -2.602002724068376 -3.590573421328595 0.0
181 1 8.0372548886274 1.9492509539308018 0.0 3.041174660189527 -1.1760164189449425 0.0
182 2 18.177986472324715 17.89306907029091 0.0 -10.785660969532394 -13.218050584969689 0.0
183 1 13.61747443555769 18.09001564981534 0.0 7.814251889679256 5.483837353494637 0.0
184 1 11.925558222344996 17.707753326706445 0.0 0.36806560274953953 7.716405874795415 0.0
185 1 4.182503022430257 0.09865143482430812 0.0 7.942446431691503 2.6061995863825143 0.0
186 1 18.250166127479638 13.702646831209375 0.0 1.9282107743988308 -15.782602896652287 0.0
187 1 19.603415250774272 4.577467287361556 0.0 -3.965302896873463 8.699765549252534 0.0
188 1 14.766286526095872 14.52798545620507 0.0 6.038967093456775 22.033163009131872 0.0
189 2 9.578402937094273 18.790677123642475 0.0 4.547079773766744 -8.791082577117397 0.0
190 1 14.98058130096998 17.226417650409502 0.0 6.865721090865696 8.962231058326944 0.0
191 2 13.098354194685118 4.168981397168839 0.0 11.754643952977244 11.549642926949236 0.0
192 2 11.41619011923926 6.813862755018941 0.0 3.3328454987696197 -2.9120029102857226 0.0
193 1 10.725167231282251 13.646061057363797 0.0 -10.889206268384388 -7.086920481997297 0.0
194 1 6.409858016141248 0.36391338035574355 0.0 -0.10844239018357568 -0.772009602263074 0.0
195 2 17.82562559889333 10.889934671787186 0.0 -4.302911702169307 2.00041111991789 0.0
196 1 19.53129622424807 5.372777286722949 0.0 -4.1355998110176015 -12.80442487965075 0.0
197 1 2.831805642440868 2.172603687517064 0.0 1.380649105813398 0.8971593101474932 0.0
198 2 4.94497525597247 4.976449205301562 0.0 -3.558804440343231 2.663798815001212 0.0
199 2 0.28846964471283154 2.2147258338365337 0.0 -3.0351709711500323 3.588757727896023 0.0
200 1 17.1999314076558 10.309828814398022 0.0 -6.616719096768168 6.384578649815074 0.0
201 2 7.79640232208483 11.71938351645053 0.0 -7.264461690836748 0.5999691212108705 0.0
202 2 13.182868574031959 2.568833470574251 0.0 0.45724467695487236 5.282574195484801 0.0
203 2 19.167647530199755 2.49465450747223 0.0 1.843007895251422 -4.366643796070331 0.0
204 1 13.23111569406618 17.672163943118832 0.0 10.836592726026891 -6.173742028649554 0.0
205 2 11.484632975198567 2.0709465347889764 0.0 -3.936198967407084 4.8873531694635535 0.0
206 1 3.1741742324555053 5.42424613576908 0.0 1.8664825665187363 -0.04934506920309973 0.0
207 1 15.450982564882308 2.0574351135117537 0.0 -6.481455994818906 2.195626395953209 0.0
208 2 12.41133964104499 11.32703596403376 0.0 -0.8258519231499142 -10.41135191690667 0.0
209 1 0.2805017869601644 13.480955611581361 0.0 -10.08177171949611 8.223715194713026 0.0
210 1 15.316012974122252 5.052437603385913 0.0 1.2450136534867322 -1.8955306990583143 0.0
211 1 8.130411845123863 13.995455533923252 0.0 -5.193554638276489 5.972597096606976 0.0
212 1 2.3273547740239717 11.76399776562157 0.0 12.574922071979843 -6.165805391616051 0.0
213 2 16.049440994780795 14.974819409496664 0.0 -3.0888724349395402 -15.131767219989548 0.0
214 1 10.300316726140489 1.9486961030270367 0.0 -10.561589874797376 2.9492753294245033 0.0
215 1 5.449163095166888 3.057746155162814 0.0 -4.889436369116476 3.7270548170559348 0.0
216 1 3.6538079046730134 19.123601385454915 0.0 -4.1687214920513105 11.377339689787032 0.0
217 1 7.053494150884552 15.182545480932154 0.0 -4.844312591253156 -10.693151796225195 0.0
218 1 3.5298303321982174 15.985642979834688 0.0 5.506610082064281 4.936738437118602 0.0
219 1 8.900430320829463 16.878995359090137 0.0 -9.1061879438504 1.4500210033328074 0.0
220 1 7.57156820748036 10.668134822770506 0.0 -0.4080112455953831 6.736305580204918 0.0
221 2 10.368154892078742 17.016937859841285 0.0 1.5214841377519794 2.4080496891944403 0.0
222 2 5.207949213810711 17.668565534094608 0.0 -15.307721256063349 -11.594625696646059 0.0
223 1 8.905674199126192 13.291847569282085 0.0 -7.361855631206739 -0.026969482338970317 0.0
224 1 3.088243577097696 1.7243563709405496 0.0 -10.774273993256061 12.846662804467963 0.0
225 1 10.13326298226496 14.79179156106448 0.0 -19.429555109247058 -12.959003658063073 0.0
226 1 17.57752562133474 7.705254828675854 0.0 5.425098700710526 11.130363057260015 0.0
227 1 3.557962614374028 3.261111901917052 0.0 4.486057245369157 -10.145800606314069 0.0
228 1 12.403452705817141 15.376851138714482 0.0 5.131032684058492 -3.980230906962193 0.0
229 2 11.92260529652812 16.452744261184566 0.0 5.9822101320423124 -1.1365227003893008 0.0
230 1 10.461522867708918 10.017373943223875 0.0 -8.471284426631836 -4.0511718682932365 0.0
231 1 9.180742533009335 12.379508972644395 0.0 17.26036836075913 16.628211500874922 0.0
232 2 16.174521242894933 4.32107570010139 0.0 -6.2145025632818935 1.1113295559639509 0.0
233 2 14.2053779526144 16.57931341609615 0.0 -5.235363809424411 5.201257199720245 0.0
234 1 10.925133293010681 9.973050821581392 0.0 -1.1176045644256778 5.3246023377636025 0.0
235 1 8.587886608311283 11.966891383654986 0.0 7.054535510574596 13.851444758719389 0.0
236 1 0.9609254531896628 4.107427222550307 0.0 1.9096883323594351 -1.2381735563266012 0.0
237 2 0.8439853638350705 1.1272911043612914 0.0 -3.7348736983830775 -6.127157669800446 0.0
238 2 17.81140560508307 4.318047167911758 0.0 -8.68389296501869 -4.766274182786952 0.0
239 1 4.123520988059122 1.8282864018579914 0.0 0.552669695902354 7.751693471631092 0.0
240 1 11.222367158939296 12.956393967648856 0.0 2.009054435993065 -10.008132197732111 0.0
241 1 1.6088363914092676 5.175327119354571 0.0 -3.485244114035281 9.667924283945647 0.0
242 2 1.905469495638368 2.5951312353194815 0.0 -0.7509786599619881 3.5176500366771433 0.0
243 1 4.743151237424839 12.067836570505268 0.0 5.1655146360474005 4.694253124399021 0.0
244 2 14.510890875967316 3.49747994401397 0.0 3.88324105381753 -2.3210431574843664 0.0
245 2 7.2976165992363615 8.565914068571146 0.0 -2.789409673841871 0.5880997097050137 0.0
246 2 19.44389120608681 12.742930875196748 0.0 -0.009237415534245334 5.9040506669375405 0.0
247 1 17.70668144539967 19.095920031836478 0.0 3.0676662620630366 14.796947788463253 0.0
248 2 16.811672752095966 0.6047097799892797 0.0 -1.1983599134432332 8.943756826043218 0.0
249 2 2.5498450355936098 6.164509489672295 0.0 -12.939497430417681 -2.608112450133778 0.0
250 2 13.08403872289698 7.1099321417343795 0.0 2.452200551941444 -12.967070271029664 0.0
251 1 9.199631641615031 10.551580713764082 0.0 1.2956570633422992 -3.0855877504430365 0.0
252 2 10.97530156660779 16.091260846324086 0.0 -10.215128128071433 -3.0615483414927125 0.0
253 1 0.08773338426632014 0.7496121843685366 0.0 5.756353649293077 8.456783476528132 0.0
254 1 8.560112880487907 12.557894241739035 0.0 5.074279728922199 -4.203152882233765 0.0
255 1 9.594008696800751 5.358384516574574 0.0 -11.664850749177809 -0.2557311471340442 0.0
256 2 8.37626896435736 8.192378662632185 0.0 -9.459284571659072 -7.488261684454277 0.0
257 1 8.345482517857375 15.32284844379692 0.0 9.12937070364974 -10.460229624894001 0.0
258 2 14.05518573801339 19.183211346866592 0.0 5.602440643055389 -1.2169107510995614 0.0
259 2 9.922037919654343 16.042328173153837 0.0 3.726020046130473 2.190977500364482 0.0
260 2 18.335940109716795 1.3790781371949112 0.0 8.109997256260522 -1.5527291822793206 0.0
261 2 8.771721771562271 17.747226390494024 0.0 6.920025157189133 6.500410513220093 0.0
262 1 14.45852746645612 4.840503122694601 0.0 -1.3469139601300664 8.806968872909334 0.0
263 2 5.8968496853395305 4.82957121506931 0.0 2.9990854981196104 -9.127363005475823 0.0
264 2 15.558621958150024 1.1633230148146454 0.0 17.103305683357757 -6.8134235606734705 0.0
265 1 11.863933772121772 1.272473143319388 0.0 -2.5995623491061917 -5.02699696908569 0.0
266 2 7.568885556326075 18.239856696167816 0.0 -16.573248753953663 2.461829622462577 0.0
267 2 8.243857186301106 18.94007793933075 0.0 1.8483227753829443 -9.091912446792358 0.0
268 1 8.946062519808647 9.719754250172976 0.0 20.7651862642703 -6.521541798181765 0.0
269 2 11.9999286024088 2.9183615638274656 0.0 -0.459956756086336 -6.02773982131729 0.0
270 2 18.598673930973153 16.318417497776665 0.0 9.390920027268745 5.53470701256404 0.0
271 2 10.95059078569936 19.433271081520385 0.0 6.632493448305781 6.613821005920174 0.0
272 1 5.147542174706299 1.78016440469971 0.0 -0.13051122852903527 -5.513762644672399 0.0
273 2 9.479887821314433 2.303709056695982 0.0 -0.5480260824397839 12.702732434473695 0.0
274 2 17.520197709566528 5.2293736117576115 0.0 9.178039983192317 5.2026308742061245 0.0
275 1 2.6314919098377745 15.251938486184969 0.0 7.664441876259234 -7.909784278795961 0.0
276 1 6.105633524008931 13.56994192008632 0.0 -1.7435904443834491 -1.4650803198372382 0.0
277 1 0.6549591645163988 14.219174418643773 0.0 -12.682794636137404 0.7960330011763606 0.0
278 2 12.456826137708456 2.0943798740944897 0.0 0.9652211190833784 5.659731005872893 0.0
279 1 3.6801072253892384 0.21206720601992707 0.0 5.751631773291759 -2.3057688657837847 0.0
280 2 7.403812404183114 9.767511245508697 0.0 0.6557345331048057 5.163704242850638 0.0
281 2 18.62234055379584 4.747677791952746 0.0 1.53906530069157 5.979784912633424 0.0
282 1 10.632363222500947 6.1265103556200655 0.0 -4.337362482543777 -0.7031049806687555 0.0
283 2 1.882136588435554 8.647215189301852 0.0 -4.510273690598707 -13.945528412529875 0.0
284 2 5.357789835413904 15.621557852121331 0.0 -3.7321945035948048 -6.203598889455581 0.0
285 2 1.0741091320568714 15.83790669549403 0.0 -7.5036317119312175 -2.947175723526394 0.0
286 2 0.3920948682956745 11.065441713596444 0.0 -15.77722153246412 -3.446456633299388 0.0
287 1 12.172787358134327 14.781248126318351 0.0 -11.863780360442677 -9.531622710548179 0.0
288 1 10.044614198669555 13.95211089016117 0.0 -0.4482819319877758 1.4613236264808616 0.0
289 1 17.068047347138574 4.1777413319098216 0.0 -6.60945441239249 4.787022331085666 0.0
290 1 4.264597098006366 11.619550398569904 0.0 -0.9482111086499782 -9.174132023545754 0.0
291 1 6.93316613985947 5.7942441372948466 0.0 13.328751777572524 13.803416941298863 0.0
292 2 14.247013551388092 15.265980871091452 0.0 4.063252424987187 0.34276802768022785 0.0
293 1 16.93036913008861 11.719781971153228 0.0 10.25149538211638 -11.244589067933969 0.0
294 1 4.97538138804245 16.431201390558037 0.0 3.8019849748380596 -2.511163289731203 0.0
295 1 14.466286164186332 13.52893586241009 0.0 4.054683294133213 3.3842469843931307 0.0
296 1 2.3786741378741905 18.72871591340901 0.0 -4.9210453309678535 -5.565612339861096 0.0
297 1 8.804062583166393 6.418652537881272 0.0 -1.3069409248884483 5.3917756188413115 0.0
298 1 18.04005589671386 2.1306883575294226 0.0 1.9533398651390101 -4.6210603529415515 0.0
299 2 19.236159883793853 18.57662650619094 0.0 -10.089128627934608 3.2896660169412746 0.0
300 2 15.313586337820187 13.732896140496438 0.0 6.133049475023128 9.027556420582238 0.0
301 2 18.527907434482913 9.99522193509545 0.0 6.534859322360547 14.702686177035273 0.0
302 2 0.5205001654737179 15.158469710844086 0.0 -10.659855203742936 -3.009238119469216 0.0
303 2 7.222749424905191 4.251976528368742 0.0 7.3801327199178255 0.8331385479283677 0.0
304 2 10.760019426687228 1.0588531990382084 0.0 5.993198330168611 3.0969019148582153 0.0
305 2 0.7699736837594086 7.49076036554181 0.0 -1.6588513913555416 -1.8961354650649096 0.0
306 2 4.891071798377603 7.0792494664992125 0.0 8.713753738272269 0.9683203356104079 0.0
307 2 1.3357970367402936 18.371822693534874 0.0 7.372015500318564 5.401617242056746 0.0
308 1 13.12497672531151 10.672562887371177 0.0 3.362984063808059 8.059682683716044 0.0
309 2 17.18139891445692 17.75110383681201 0.0 11.715385752023167 -3.7986545708176553 0.0
310 1 16.772559162907207 8.664795942565501 0.0 6.356565430726528 3.3168731641708593 0.0
311 2 2.7228210253377183 1.0400298684691172 0.0 -1.8354396712931136 1.4721564428464073 0.0
312 1 7.461909109310682 6.559635307046304 0.0 -6.160154647121043 -28.93764857315111 0.0
313 1 12.184936289627656 6.152792387919436 0.0 5.005844785230915 13.712528071246398 0.0
314 2 18.07430687907791 14.672368139486153 0.0 -1.5151444157410052 -2.6271498903656747 0.0
315 2 7.415893383476529 3.0213125147333013 0.0 -6.91473163581013 -1.1943341882618768 0.0
316 1 14.908110152610265 16.07609345024625 0.0 -1.0325729612567578 6.569663249422133 0.0
317 2 1.768000673411006 15.044351109635263 0.0 9.131519191655709 -7.6577106269462005 0.0
318 2 2.3191903456838876 15.985505377133231 0.0 -2.144817198884402 -0.04218229530710662 0.0
319 1 15.142418635201766 19.01036530358057 0.0 18.36866928824206 -10.673759476010266 0.0
320 2 11.448473606394566 9.442113941350254 0.0 -5.128524011992849 -5.3060464872014474 0.0
321 1 11.273954279070779 8.726259453373771 0.0 12.24617830429656 6.7586044836808155 0.0
322 1 17.915064563418472 11.80134954354171 0.0 -8.785753741815725 18.299288422118707 0.0
323 1 15.984331661600917 17.742990771529005 0.0 -15.827082216094555 -7.7486325735990595 0.0
324 2 10.668037386271493 5.089352802314575 0.0 -0.20047881925861785 10.504139671704793 0.0
325 1 16.25811208464214 2.3182311373235707 0.0 5.315582218227498 -6.219346669305657 0.0
326 1 18.769613551802326 5.6996781518429485 0.0 -14.77386675282914 5.9827095952919995 0.0
327 2 9.60470764455262 6.933179659313475 0.0 -10.00581645534404 -2.0570609267073934 0.0
328 1 3.153566206823404 2.875662053736929 0.0 4.7176216367148625 0.5058803091030648 0.0
329 1 3.552056395529838 13.614846844966113 0.0 7.572239456328698 7.685432935061712 0.0
330 2 10.861659468202882 18.40425389990987 0.0 2.613043161837518 -4.004327485550301 0.0
331 2 5.614942704909144 9.79585279368357 0.0 0.19467540563197447 -2.3824373829150733 0.0
332 2 18.400652717830212 3.3264780290898686 0.0 1.8433886232165788 2.6197498182150185 0.0
333 1 2.9866197001448986 12.460384070285368 0.0 -2.384108705875834 -3.213840977596791 0.0
334 1 2.2717377889721853 1.7527576361782893 0.0 -11.169302515142553 -29.159705824744318 0.0
335 1 5.878951196391014 11.872508676195148 0.0 -17.499577464880478 -2.8684466555020074 0.0
336 1 5.2405050477017046 10.666258218307636 0.0 -1.3277739455812492 -1.686302378300945 0.0