ITEM: TIMESTEP
0
ITEM: NUMBER OF ATOMS
400
ITEM: BOX BOUNDS xy xz yz pp pp pp
0.0 19.7609 0.0
0.0 19.7609 0.0
0.0 10.0 0.0
ITEM: ATOMS id type x y z vx vy vz
1 1 4.441096679093837 3.035561900070221 0.0 2.117378733268276 -7.476641352892208 0.0
2 2 2.48564374751677 13.526376721820393 0.0 2.3475957300659744 8.770493407229198 0.0
3 1 4.258193859082287 5.948807970988197 0.0 2.0409629772143982 5.817203893949677 0.0
4 1 16.688771576792576 2.760881468779894 0.0 -2.6653454221908333 -9.037562115599522 0.0
5 1 18.86049499880485 3.165023320806564 0.0 1.994598878343326 -2.858136023271862 0.0
6 2 18.959365543975338 4.259255574602035 0.0 -1.9163899179161552 -4.131666822473335 0.0
7 2 6.478188751980464 4.871277183308299 0.0 -0.019474169136468995 -0.3832125950260024 0.0
8 1 4.73214154456303 1.6258392518547964 0.0 -4.41425946411381 13.413745060085274 0.0
9 2 8.285837433941365 14.079958287489275 0.0 4.419035073557673 2.658354877327219 0.0
10 1 17.23018279287867 9.038146058503276 0.0 4.53277531821446 0.5554988624214896 0.0
11 2 13.27371425246727 8.988176113354179 0.0 1.540879625751708 -7.586189322937577 0.0
12 1 9.910256139169705 1.976069580951334 0.0 -5.912896745053211 2.381308989145383 0.0
13 2 12.689379668885469 10.461348644319267 0.0 -7.442466530892024 4.2050853690802805 0.0
14 2 4.440957685105099 10.227729656848803 0.0 10.878248456028718 -17.833637851863138 0.0
15 2 17.17206037710786 5.333259642026336 0.0 0.40345646695733606 3.2352788025568704 0.0
16 1 1.279115789421239 7.723485894316745 0.0 10.789865092214823 -5.229824953674159 0.0
17 1 7.465133154086901 11.067044262171754 0.0 -3.6159770531907376 -1.6247135946651479 0.0
18 2 6.3126144066746095 18.54940063637742 0.0 -8.956453253684263 -2.371854753893765 0.0
19 1 10.321933488836848 18.283044588416814 0.0 -3.5519143078290702 -7.875712432830103 0.0
20 1 12.075136066882756 8.370689363725736 0.0 -6.8324094589029185 -17.15405681550587 0.0
21 1 15.45729172871943 18.782576793815295 0.0 -21.008345723946697 -3.027771753803262 0.0
22 2 7.189480798320169 18.352464783186054 0.0 -7.4536010053260995 0.38621595624232585 0.0
23 1 3.592827065123812 5.269062724513372 0.0 12.733663446962755 -2.2634858061952516 0.0
24 1 8.351085421723111 4.8505980596809595 0.0 -4.801102380846778 5.334200330044142 0.0
25 1 14.080359838309906 10.165086526099074 0.0 2.8478429505896803 6.350608149553146 0.0
26 1 14.465395893377048 5.406850090099499 0.0 -2.095885055000114 0.714868686144561 0.0
27 1 12.899627791295309 13.600327252702963 0.0 0.09342983389718319 3.7013312612401372 0.0
28 1 8.338389162692819 2.855509387190848 0.0 -1.0821000228185558 8.583115427600733 0.0
29 2 6.047016719718019 1.6553314756865543 0.0 0.21597958512769996 -6.4263445920837325 0.0
30 1 4.969309753253133 16.858484317469298 0.0 -4.120037161278282 3.69077284500155 0.0
31 1 4.262955664382374 6.638098783152342 0.0 6.147614094826833 1.2984165656591597 0.0
32 2 14.486742050481602 17.73815707087473 0.0 3.7891186893850595 2.891548642864546 0.0
33 1 15.845593338456236 13.915064797870023 0.0 1.0706947575560786 2.9089004901565865 0.0
34 1 14.731820028195443 4.3529045373583655 0.0 -2.484454671053288 5.213623864307369 0.0
35 1 6.325621602235959 6.969904840972231 0.0 -0.471873261612877 -10.844617418436632 0.0
36 2 5.209272000319006 8.569419794762043 0.0 -6.951613346529889 -2.669573403426252 0.0
37 1 8.912252108346689 5.073003753524444 0.0 8.34011055113868 -4.257031761568155 0.0
38 2 3.483543757126351 19.717607762874344 0.0 -1.3087699616816963 5.887171458761914 0.0
39 2 3.431651344454272 9.421826677182999 0.0 -1.80572600025318 4.808577917079578 0.0
40 1 4.7145979196580825 6.211850638233209 0.0 7.658033008445445 -4.228212524240784 0.0
41 2 19.432823993551434 12.01922652879904 0.0 10.578724460144667 -0.9347902622749572 0.0
42 1 3.6108792252428086 4.031994798295717 0.0 -18.422652532872945 1.2215891781727406 0.0
43 1 9.906968721793952 9.194585122665572 0.0 -9.748427653068095 13.284393914215242 0.0
44 2 15.943416827922512 12.664863898316757 0.0 -10.20523941205534 -1.9158030046249896 0.0
45 1 9.827373073060498 3.152002033163938 0.0 6.123414314632158 -0.5774623802375416 0.0
46 1 7.176941867950343 7.7176736372514725 0.0 10.41404641153768 -4.02316798962528 0.0
47 2 14.474973506227514 9.294367019448886 0.0 2.401756134505564 3.6988957452405034 0.0
48 2 12.593418020764437 9.458308836175135 0.0 -2.3841302485608584 4.91808991820439 0.0
49 1 3.085172712886786 6.933456343504737 0.0 7.998524138145322 10.67767513914435 0.0
50 2 7.367280296059829 14.564573152478562 0.0 5.901085643331312 -3.2174028655159765 0.0
51 1 19.683615789667098 8.186923409548523 0.0 -3.168761083402312 -4.579103850955722 0.0
52 2 2.009730961121202 8.14527145027961 0.0 -8.792538715464865 -5.598265566063699 0.0
53 2 9.924001423577158 10.404627069736351 0.0 -7.963473536689576 -6.068736544611018 0.0
54 1 4.146846948124237 5.153150187131277 0.0 4.2925749416081995 2.363967569098371 0.0
55 1 0.43445368654486827 6.797633746467799 0.0 3.271722318531196 7.814988864953903 0.0
56 1 8.11323334127234 11.460229216001236 0.0 -2.548058111122557 -12.08652982635176 0.0
57 1 6.3682264423413555 10.607002556907892 0.0 2.5058367905707195 11.438705571212461 0.0
58 2 11.79642234969926 17.007158346526417 0.0 9.20892984964309 5.992356166025745 0.0
59 2 8.96216483632952 9.053263025294745 0.0 2.384853309013063 -1.6297272590500573 0.0
60 1 13.099126300007448 1.1337675740111284 0.0 9.104031240176033 -6.208650578397702 0.0
61 2 1.6405627758548718 9.511922035546029 0.0 -9.837185299538486 -2.3728147787411595 0.0
62 1 18.00938011192297 3.152334073005362 0.0 -10.073447883098302 -2.1755721636380367 0.0
63 1 19.574984886548947 17.122410049969247 0.0 -6.592760701000735 -3.7819263111542454 0.0
64 2 4.036377971226722 2.0418354419299254 0.0 4.95317248445569 8.5082699857775 0.0
65 1 10.435113052694584 13.55470051098663 0.0 7.12981524953034 -1.0528697122759871 0.0
66 2 14.849134766544326 14.076581508664473 0.0 -1.7195520831266964 13.042687811661702 0.0
67 1 0.6132700041877082 9.388130638475982 0.0 -6.282938131708622 -12.458902027723315 0.0
68 2 1.8043997256452944 18.78702388661743 0.0 3.168382151387459 -1.4483448972902129 0.0
69 2 18.74479349000585 16.952977987338105 0.0 -3.8748751342462078 -13.047947088651632 0.0
70 1 3.2301563572635166 5.67187901280507 0.0 -5.260673286869556 3.734130001906553 0.0
71 1 10.480286590547228 3.6315272976427444 0.0 1.3955217708270253 4.595235089965401 0.0
72 1 16.9949547721867 10.669024619157375 0.0 6.836560960962683 8.992552053257237 0.0
73 1 8.852239358068053 16.878077783856767 0.0 -9.985206884145677 -3.806600268021376 0.0
74 1 4.3187344108543435 1.0139939086839354 0.0 4.146684523221552 4.3212336840780265 0.0
75 2 0.6377440048882261 2.4875020878669996 0.0 -1.2784897769192929 -10.882913968244246 0.0
76 1 9.418025481060816 16.732166645819166 0.0 -1.1351783302191576 12.7800681663935 0.0
77 1 7.943149946977828 4.087129472582605 0.0 16.008823617081905 -5.080460338421242 0.0
78 2 14.34111090819783 0.41710042040784423 0.0 -3.0128792660027326 -0.7413798324983404 0.0
79 1 1.8560722761530384 14.340208341599403 0.0 10.322882737381141 -6.333049440402035 0.0
80 2 11.850853317510374 4.756798069051018 0.0 -8.237073909200472 -0.504794083096451 0.0
81 1 10.268057839499772 0.057103659634495 0.0 18.491977180098427 20.285670033518407 0.0
82 2 6.243024357076678 0.7737332212712563 0.0 6.527743547302107 0.17282518538215508 0.0
83 1 5.054323044644799 2.0017267875492464 0.0 2.2263173263167864 -1.8342932701878438 0.0
84 2 14.598895351741275 18.590501983254597 0.0 -1.6089284487488156 -3.1211173808265835 0.0
85 1 7.783273605525377 7.9465096893238485 0.0 24.40967610633849 -0.7814607692784735 0.0
86 1 8.837755178325791 2.1128361712920123 0.0 -1.2747662166084819 10.935380830543025 0.0
87 1 11.017041609329686 13.258163348583233 0.0 -1.845203501735219 -6.888188372917306 0.0
88 2 16.27827097139436 17.058207121192346 0.0 -2.4470200504049275 -2.1609067858024082 0.0
89 1 5.896467496230686 12.912700414934703 0.0 9.392084997297863 7.572123028660346 0.0
90 2 5.275992233765831 14.634166967418215 0.0 10.62354189412331 2.883662432105652 0.0
91 2 11.422215905852191 3.7241009844319657 0.0 -1.3768225732649522 -4.394550630498354 0.0
92 1 4.82981541660895 11.573775566628992 0.0 3.2957497771879645 -2.289142521102398 0.0
93 1 11.404951055188434 0.9069309332175389 0.0 4.3130260265627305 -5.274102315791213 0.0
94 1 5.4922145089310295 9.978591339719276 0.0 -7.871213471397289 -16.334846546082236 0.0
95 2 0.16923087076842214 4.358910354105742 0.0 -0.152164364478441 1.7141062930019184 0.0
96 2 13.396975605169898 13.098365226682112 0.0 -7.074995515587941 10.901223163765295 0.0
97 1 13.173087777406774 17.226784314276895 0.0 1.4196296405728899 5.929656470522031 0.0
98 2 15.535414955756847 10.54529859420975 0.0 -3.1365278356770947 1.6166434789279278 0.0
99 1 8.141177780393416 16.90518729632485 0.0 -9.098948307500827 4.487191843449155 0.0
100 1 19.19409470772224 13.391599852026049 0.0 -5.148636314715301 -8.257399668335497 0.0
101 1 16.369095876551025 6.2583452577590934 0.0 1.226133389310682 -3.789321132957843 0.0
102 1 9.793338247899749 15.902003233960368 0.0 -10.21899073106628 -6.957112071279845 0.0
103 1 12.684655781161117 17.183151686669156 0.0 8.146980355729752 -6.313760629767412 0.0
104 2 10.9456619723712 6.573551556600604 0.0 -7.010763064649843 -4.016247343321504 0.0
105 1 12.977456845975393 18.426452716456204 0.0 8.675164089185161 -5.839882090714148 0.0
106 1 19.701119705110976 18.075516134864323 0.0 -13.685156480415356 -15.974844969261142 0.0
107 1 9.319356374889392 3.742938730834022 0.0 4.819549747798518 5.531802791051676 0.0
108 2 14.436722957784188 16.059763670401235 0.0 -0.48618658864395875 1.186447478271388 0.0
109 1 3.5627437007743343 2.8422866339977517 0.0 2.8334932572225324 10.62780054422885 0.0
110 2 12.251626074432549 15.409155576769562 0.0 -0.7932967237377057 0.4401173904442636 0.0
111 1 10.743437771222668 4.477388205979736 0.0 -1.6791914947673636 -11.55238448729662 0.0
112 1 2.9904317508305467 14.333310568271116 0.0 4.856931116301398 -9.647495904163003 0.0
113 1 18.19956374257317 12.77194632780979 0.0 7.459305790114605 4.495632136806592 0.0
114 1 11.676983113535398 19.423356538936478 0.0 4.106217654156117 -9.546131899968438 0.0
115 1 9.453048044676388 9.700054097862628 0.0 -7.300064911534243 0.2825309076137647 0.0
116 2 19.317284419468987 18.939912626402407 0.0 5.747108713956894 0.13054596280372457 0.0
117 2 18.424789559312398 13.7280551016703 0.0 4.923192944823326 4.718171586498018 0.0
118 1 2.6141374269882127 6.830934793632667 0.0 -2.7778270117226285 7.394391274394493 0.0
119 1 9.499637726572512 17.494954715982942 0.0 -3.8290622488800174 0.3345072517414924 0.0
120 2 10.513968201478214 16.92901879057775 0.0 -5.487985097587991 -6.011122425046415 0.0
121 2 3.0549471468525535 18.843435923084385 0.0 5.492574944786947 -1.6479460316398076 0.0
122 1 9.74798673885582 7.59490567877484 0.0 -19.68135754642786 -1.1835805336653922 0.0
123 2 16.579652559357235 18.011259052353143 0.0 9.925708068219336 10.051787749471794 0.0
124 2 12.181851892615716 11.436316376332778 0.0 3.876090007913178 5.016423329826249 0.0
125 2 14.07019544384473 1.4988126293017263 0.0 12.133172710590088 0.5901713275296419 0.0
126 2 9.424795606540153 14.621549609237576 0.0 -5.59338028623818 -7.898517449314286 0.0
127 2 1.3884110439977373 0.48274685542170603 0.0 -14.568379649964935 1.3794907051517893 0.0
128 2 14.106477767978857 12.090021172943153 0.0 -0.8923411778967585 9.761495689938908 0.0
129 2 1.6105873324386217 1.301017049484228 0.0 3.536713318884093 -13.6253895122418 0.0
130 1 13.765818589177057 17.035205647515586 0.0 -8.60756943083225 -3.7810755710933686 0.0
131 1 1.6152252118850892 14.780921854825666 0.0 -3.9248113722610194 -2.3735434968715294 0.0
132 1 12.02268717083659 14.057501124047663 0.0 -4.216114222995124 -6.3271826610006885 0.0
133 2 14.477278382911647 2.528570563478606 0.0 -0.8219477394320103 -2.029056655867936 0.0
134 2 1.6707466868318663 16.25778012507695 0.0 0.5896174196266045 1.0647838067842343 0.0
135 2 15.910610066403073 7.634827235253794 0.0 8.643475966309369 -10.54346613937141 0.0
136 1 18.880276475448305 7.634948715862602 0.0 -6.067372743987431 -7.864580201139348 0.0
137 2 3.9868840434977537 11.17440971562827 0.0 12.95401007174989 3.6739184734218786 0.0
138 1 14.748229341719282 6.108246102544446 0.0 -1.185864359734025 -11.40103717369434 0.0
139 1 11.836366310700692 6.609241157278749 0.0 -3.1853115737139164 9.475521537241185 0.0
140 2 10.342755234755478 8.537058610676276 0.0 0.1882011312786938 4.006885202659779 0.0
141 2 18.71536383711889 10.867768047246795 0.0 4.9349865940750615 -5.229375218490963 0.0
142 2 17.527428737422245 9.830105850840788 0.0 6.39658245865 9.848868034667808 0.0
143 1 3.0399693854987393 5.0100652274669795 0.0 -7.786804126570418 0.8347240533656722 0.0
144 1 13.404727459950175 11.766386181395761 0.0 -4.990196267847835 -6.336656920703948 0.0
145 1 16.639932057980523 15.259249139053646 0.0 0.880396679779241 -7.103199615595988 0.0
146 2 17.442232592213703 11.502112064370973 0.0 5.14629767880046 0.41244238942619976 0.0
147 2 1.1121062673082456 8.581300232423427 0.0 13.57322260679792 3.8305904319552226 0.0
148 2 4.449772659818435 12.885107565288488 0.0 -1.7616836539343632 -5.560502622474457 0.0
149 2 17.871741339061444 7.957395951232957 0.0 -3.3831646140629967 -1.4730460998321218 0.0
150 2 17.616097226610666 13.677464627708751 0.0 1.0006891817635342 4.841758244704839 0.0
151 2 1.8006732528823999 10.395279846121277 0.0 4.133462958672277 3.8767684720442865 0.0
152 1 2.352348780334855 1.4674718147061698 0.0 1.901178863588302 -9.236311076984014 0.0
153 2 18.363478611532003 6.29040910136739 0.0 -2.3966211637684838 -4.288941400508988 0.0
154 2 0.3320585180919964 3.460445463533215 0.0 -0.9577255168024165 -7.292713395367389 0.0
155 1 1.683037119735208 13.168665656372164 0.0 -4.9845604403601484 -12.892921629303272 0.0
156 1 10.702903175372612 2.749857328942855 0.0 4.97757668985369 -11.13453927447742 0.0
157 2 5.601500614048141 2.7753254286883218 0.0 0.8221469745685982 -2.080691475540381 0.0
158 2 12.945800524714244 19.295179511056247 0.0 -0.750986895446125 6.94913304081721 0.0
159 1 13.157055141537928 1.7489036485786629 0.0 4.764502231678843 -1.1803209993250938 0.0
160 1 17.211752362145614 2.9127808654051974 0.0 -11.181599575683522 -4.16724145131284 0.0
161 2 8.64304745085654 10.01387811052835 0.0 9.984005401564882 1.6131114556753923 0.0
162 1 18.172627014787626 2.5921974225673874 0.0 4.871940809144672 -11.228770499342247 0.0
163 2 0.9895315975134139 12.029743126292976 0.0 0.9155206706421241 1.3244007942123286 0.0
164 1 16.121895523391064 18.926053724658814 0.0 2.8009831849669697 3.724915950484546 0.0
165 2 14.374197696997314 8.472495874425498 0.0 -1.9961183684271193 -2.018031140464976 0.0
166 1 4.960609266003237 9.291779931155101 0.0 0.23419148237783416 2.8319551371275917 0.0
167 2 14.948586492220596 9.942174536400065 0.0 2.333740192610456 -0.2864091861798028 0.0
168 1 9.529878023833325 6.709521555755798 0.0 -22.284903801356723 -4.624716697259667 0.0
169 1 14.004085810394246 3.9834021323624866 0.0 1.2485054529404587 10.762635147999973 0.0
170 1 8.323143720424884 7.470736839041805 0.0 -7.496072878105464 -20.258692300090264 0.0
171 1 4.481229433872749 11.970458560186463 0.0 8.850787863830808 2.867944596473696 0.0
172 1 5.26752596752126 12.600542909860819 0.0 -3.555179037010267 9.908679249007783 0.0
173 2 2.9254088313103486 2.2007368114213985 0.0 7.067865056929986 0.7905417830384829 0.0
174 1 5.346418901026985 10.578969871680393 0.0 -13.844911095390549 0.44154559372998575 0.0
175 2 12.7885491079433 3.620999055427131 0.0 -5.215387132129535 -7.469132503598891 0.0
176 2 1.824158038289949 6.775139061779205 0.0 -6.169449744435246 6.603073732006879 0.0
177 1 16.450212119996067 11.315008332132683 0.0 -0.13213601014483084 -3.614073893274153 0.0
178 1 19.09097589815957 8.254676885856053 0.0 5.621330125083563 -15.188083095849379 0.0
179 2 14.749601808742842 11.164867050254337 0.0 13.389305532959435 4.742078690248562 0.0
180 2 17.69033013020453 16.84581971129621 0.0 0.05739696916085898 9.36820292501119 0.0
181 1 13.95128720515592 7.646981056921589 0.0 12.919695656246555 0.6920845248067122 0.0
182 2 5.7479803019572255 17.413337518935162 0.0 0.9185845733709931 10.485798930740312 0.0
183 1 18.240277778270826 15.509001037591643 0.0 -12.525433661749782 2.7521381284939883 0.0
184 1 12.42445287502172 2.76239906534919 0.0 -1.4882038755479585 -1.931683628621665 0.0
185 1 8.841175673399853 7.355828054057291 0.0 2.9304794871368336 2.150905209994802 0.0
186 1 7.158742115771898 12.632232200471483 0.0 1.3362932245593104 16.353347880708558 0.0
187 1 12.067301314784634 19.081549774824335 0.0 4.310824258347746 -4.239755039475242 0.0
188 1 19.64457957259112 6.37600402318256 0.0 21.897084685025757 0.4655978894440296 0.0
189 2 7.515370108851403 9.734756315956 0.0 -2.723176107053456 -1.56356199396133 0.0
190 1 7.051204061316916 5.841756071728601 0.0 0.5897759096383983 -8.90987317512366 0.0
191 2 14.55991873930941 3.4753400876524903 0.0 -2.569491554455824 -0.30565384631352494 0.0
192 2 18.754444338947156 0.16150363837202591 0.0 -8.18333236747287 -1.5237878333869141 0.0
193 1 15.237402592488122 9.095845177831492 0.0 0.3956932509560028 14.864969034866762 0.0
194 1 9.330739022802879 18.75779345112861 0.0 0.9570128383224163 -9.012963671227087 0.0
195 2 2.5601093924153084 8.855325120955538 0.0 -2.482390527619454 1.7876404584047527 0.0
196 1 15.34853266377822 16.561587298495752 0.0 8.784134914544369 -6.1208646900713095 0.0
197 1 11.587913603594904 7.238825921585541 0.0 11.924795357951863 6.493443023221143 0.0
198 2 6.769606908957802 17.172242496489222 0.0 -6.395163645774471 2.641732811895676 0.0
199 2 0.44285624352006075 15.433477516817982 0.0 -1.3785866366043826 -3.0538558319169513 0.0
200 1 13.619207825820576 8.144129836132848 0.0 6.613101857138262 -8.045218157953968 0.0
201 2 8.950159903421886 6.095006794751288 0.0 -10.649985764072078 -6.313684409612997 0.0
202 2 11.255487703345938 10.72557197804117 0.0 6.823334939654023 3.3998620855377255 0.0
203 2 2.9331461450255 17.838943049129217 0.0 -3.9348475011326025 -4.969572397335456 0.0
204 1 14.396796179738608 4.758885782950852 0.0 -0.11274218518422685 -11.290244403338788 0.0
205 2 12.612470145061513 6.3205446609555525 0.0 5.250762463713536 1.468543394684396 0.0
206 1 11.423688277488548 13.772168315323947 0.0 -2.1490726037769314 1.7177808491017599 0.0
207 1 5.990836052414793 8.736546214700006 0.0 -12.163839308126137 -3.7205908437690836 0.0
208 2 17.55231722807038 17.998135651730905 0.0 11.209755205420368 10.648958815168696 0.0
209 1 13.423206698072317 7.105651806285925 0.0 0.616486345255405 -2.2989476744649266 0.0
210 1 3.303842362180302 10.293260745976147 0.0 -7.486915541398073 7.594892550897407 0.0
211 1 10.72713487186553 18.551565212283187 0.0 -3.072988574407706 2.4674887280918982 0.0
212 1 4.715250047940349 16.413342641218822 0.0 6.9206270215640115 -10.254690921887228 0.0
213 2 19.41105937515245 14.303551762156793 0.0 3.3796555068094456 -6.2120918222116535 0.0
214 1 6.850670167186328 8.576229614979058 0.0 0.8486254578818789 -2.187609658121491 0.0
215 1 17.96189697906418 0.7706396403505696 0.0 3.1480727046255437 -4.975093005475275 0.0
216 1 15.158165454377691 4.74436839127942 0.0 -4.138957948977191 5.134360300670284 0.0
217 1 1.972529446068651 4.830453976185226 0.0 -7.831395935186468 -1.532559946261061 0.0
218 1 13.539624948720702 9.795337707899874 0.0 -0.4237090295066835 -5.11101402215231 0.0
219 1 14.880226048939722 7.456355305161431 0.0 -0.9668958218148743 4.7238019327131635 0.0
220 1 7.355870374120228 8.3236623179565 0.0 -13.143587934909236 11.59785335263022 0.0
221 2 11.058152004315302 11.897825347545586 0.0 4.145296644755991 -4.333939977981216 0.0
222 2 11.609543603910629 16.132981751249634 0.0 7.255944341565295 15.462753022212173 0.0
223 1 8.289321727343243 8.46590887867717 0.0 9.490235010006156 -6.319929048491051 0.0
224 1 17.512857079534932 12.919641369172577 0.0 4.324388270955921 9.817485347557048 0.0
225 1 0.8535494343046163 13.919104975777655 0.0 3.972123014171561 -11.216144332989124 0.0
226 1 5.287753718377298 15.57414030397193 0.0 1.3186659512030392 -26.245896236812936 0.0
227 1 16.842664222684004 2.322815932740065 0.0 -2.080634944518489 -16.359946265098436 0.0
228 1 2.637804784260537 10.235434890267223 0.0 -1.2498028526392133 7.279877073790418 0.0
229 2 15.544207719344609 3.0197172467470987 0.0 8.269121968521892 2.1314747306046895 0.0
230 1 19.594849911785236 2.3972469178211253 0.0 28.067408017645512 -10.276835081566947 0.0
231 1 16.654233425190156 16.17828256420678 0.0 12.304969453323832 5.110890510757568 0.0
232 2 6.5810287434920145 15.029120158350718 0.0 -11.443814795366585 0.8495934036706073 0.0
233 2 11.844629362268735 9.97123767386577 0.0 -2.0504893667453925 0.5087474733133728 0.0
234 1 6.908324144720501 1.7498056418245147 0.0 0.5604431686337005 -15.920952288203464 0.0
235 1 4.341362944244943 19.721490931287573 0.0 7.4449396269083135 2.5815168024723256 0.0
236 1 5.644297769165087 5.50329068810334 0.0 3.798062969285285 12.92922039442485 0.0
237 2 16.814084034655682 7.581684773715818 0.0 0.850038648869437 -3.7899093515937277 0.0
238 2 0.24267213282506817 13.347724763414302 0.0 8.701510436636607 0.5057170741569224 0.0
239 1 6.679374924315564 10.144054909811988 0.0 -13.719469775656268 -0.5804211119932416 0.0
240 1 6.832490643964287 11.868290812812456 0.0 -1.911763663873742 6.950692761730936 0.0
241 1 13.321386798392561 2.2421927396031154 0.0 -0.8801331050522435 -3.7522235824425776 0.0
242 2 3.3005457699253276 16.881605857743768 0.0 1.7408660794667117 -0.3524971135627719 0.0
243 1 13.921760040654503 4.510736311450538 0.0 1.4843896440231885 -6.801256632496534 0.0
244 2 19.345394801631805 15.539718066384495 0.0 3.8548157963260588 8.741551051092966 0.0
245 2 4.35279312249612 14.75113023260018 0.0 5.9789784586815236 -0.16712971148491634 0.0
246 2 0.13484511967716725 1.635240404361402 0.0 2.4500197060344737 -7.62390832728794 0.0
247 1 5.446373318976645 18.161077492834618 0.0 -9.440062478252242 1.0469888374719767 0.0
248 2 0.9241612677640717 5.275345095776098 0.0 1.0372043217019016 -5.1393184039208375 0.0
249 2 2.2992827337783157 16.91104006250408 0.0 1.3791215802247563 2.808160361240006 0.0
250 2 17.922429237095535 4.021963695138308 0.0 7.17235575036077 -9.525329444200167 0.0
251 1 7.39257423474732 13.63068028943045 0.0 4.280779280661377 0.941358843534394 0.0
252 2 15.811539644714806 4.000396856067796 0.0 4.368887444650173 3.8845153200313174 0.0
253 1 18.89666467545617 12.741832016109406 0.0 -9.549090616780063 0.18338079622415912 0.0
254 1 5.0569117193368776 18.584597384537 0.0 -17.67460072016543 -6.72158812887686 0.0
255 1 7.470332966788584 4.352324521121895 0.0 -8.919599823027138 7.999029867802979 0.0
256 2 3.0933010227776827 15.217060265057848 0.0 -3.7584488077682745 -3.4218140071044747 0.0
257 1 13.829879703911194 11.19712159904844 0.0 0.6811681541886644 2.7822913760841237 0.0
258 2 15.272693019456295 0.22873108655868513 0.0 6.198075210582738 -5.642180417854694 0.0
259 2 12.143824736576718 1.6947498748678176 0.0 -10.528505681059572 -6.62203199198652 0.0
260 2 19.59931519422383 10.568066414980137 0.0 -6.585745445400467 8.383334209961651 0.0
261 2 3.528770081647552 1.1783932298736943 0.0 2.696034488156596 4.1536420080574095 0.0
262 1 13.4895697858744 18.10858129843653 0.0 5.883162850431431 8.73876719500605 0.0
263 2 1.373757564216022 3.129904461426748 0.0 -4.287806938748382 1.6299798114911914 0.0
264 2 9.361318225092198 8.320107257814565 0.0 -0.36929838577835417 -3.3969714387339107 0.0
265 1 3.2195630478666573 3.642029601561708 0.0 -2.82470267704692 5.84919264065505 0.0
266 2 13.862785862968588 5.930526429723441 0.0 6.879189060178029 1.2648679687542617 0.0
267 2 17.273904544263445 6.237658097054568 0.0 -10.514234822709653 -2.45994145333494 0.0
268 1 11.07258123502817 0.24177620393473545 0.0 5.7756489078403375 7.190390597817909 0.0
269 2 5.146207632493847 19.353086165512323 0.0 2.823421235767452 -10.954529494704882 0.0
270 2 9.251330467377077 0.11271551105774832 0.0 8.915180940647588 2.0094993035001014 0.0
271 2 7.963806353982982 12.922381357263877 0.0 0.605363688802659 -1.8830888783453947 0.0
272 1 18.747565716939533 18.13963161728422 0.0 -3.6678997402412734 1.9555741998174665 0.0
273 2 13.169756534534907 16.153378767155473 0.0 -1.4774134210395462 -2.420572036260583 0.0
274 2 18.11186575781439 9.013825960424429 0.0 9.240160437037442 1.9089629406964876 0.0
275 1 15.636292417861748 4.868427769562084 0.0 -9.58912149426065 -9.25451682729695 0.0
276 1 0.9579533792579212 6.989444450273419 0.0 -1.4937444314591721 -9.649664326421851 0.0
277 1 10.077337884106369 6.681470496660063 0.0 -7.414932633196297 6.939111921176176 0.0
278 2 2.362845028057399 0.3091340539888307 0.0 1.7096802169616352 3.163867165023118 0.0
279 1 3.006450086997223 11.294598889196045 0.0 14.041129697100603 14.326688417178678 0.0
280 2 8.365577301870957 17.64610564603841 0.0 1.521396758769805 -4.118071528942611 0.0
281 2 17.210606292180795 18.92982832005554 0.0 2.2020504914972387 1.3241389544128586 0.0
282 1 12.576384512026738 8.347998157956349 0.0 0.7414409740233894 6.798457608384563 0.0
283 2 4.393990778629047 13.673003266810053 0.0 -0.778284495403729 6.617974294303814 0.0
284 2 6.472639386146303 13.50914065132519 0.0 -4.054090027159543 3.744014756414127 0.0
285 2 3.6524474283111483 12.844134986163183 0.0 -4.859647269690786 2.326274849834075 0.0
286 2 15.552376717143094 17.664803431295468 0.0 1.2969797676829748 -2.370463553744598 0.0
287 1 5.2534031911776236 3.633350289198435 0.0 -5.509570741853506 6.23550607864428 0.0
288 1 5.890132886411371 10.324788944393 0.0 -0.5088795444127966 -18.60345247537236 0.0
289 1 3.0985058404541777 12.048102921846835 0.0 -2.1568969189997333 9.973481803622946 0.0
290 1 10.201987137127654 7.237362022163582 0.0 -0.8356076431987202 0.0713069076716078 0.0
291 1 17.401946593405327 15.541348663047204 0.0 -5.695994570198669 8.699131389354559 0.0
292 2 12.910620261492138 14.929291089904801 0.0 -6.236845004339366 0.8327202673354692 0.0
293 1 1.6798539513488282 5.916043101257304 0.0 -5.151832387644844 -13.052235246526143 0.0
294 1 9.168108533077707 3.1121504480564 0.0 -8.589778199681168 2.7175520485258287 0.0
295 1 2.4892303419726542 10.80990177535946 0.0 2.753681492588721 0.42263184396525594 0.0
296 1 3.6724522634361065 11.97441972051719 0.0 -2.7532044232103097 19.712806861518388 0.0
297 1 3.57574627297772 6.131899913929632 0.0 -5.968274038156774 10.055373691875145 0.0
298 1 16.894031979461374 12.60655662354579 0.0 -21.92174297250766 -0.336891956252705 0.0
299 2 8.144629801844658 0.15252421239033426 0.0 2.375926302866562 1.9427748424081694 0.0
300 2 4.053296093347538 8.533753498689832 0.0 -6.853105239325311 7.1207019452993405 0.0
301 2 8.816029580475256 13.286954354809989 0.0 1.605526912926571 3.287722061588921 0.0
302 2 13.945755271846734 13.891674236039806 0.0 -8.726280493559864 -5.644461222182791 0.0
303 2 2.1343453742057497 11.69156935055682 0.0 -13.936220833114632 -3.4180604251863205 0.0
304 2 4.241949991118031 18.820763391479996 0.0 -2.9662650299524946 -3.4285159893597723 0.0
305 2 19.694000014167045 0.5656082990746641 0.0 3.9114979301689874 3.9921031015754465 0.0
306 2 0.838447200247373 16.589641553798337 0.0 4.778073338659041 4.415471978638104 0.0
307 2 17.616460772292317 14.630779539940827 0.0 -9.090388686154991 3.948407077969005 0.0
308 1 5.522380778923785 13.653863051225523 0.0 -0.9882257495650484 6.11778339534513 0.0
309 2 9.533893400951191 11.614028220501664 0.0 -6.194228548811834 -4.130815076085433 0.0
310 1 2.1501257279486987 3.214355299425694 0.0 5.932760951139155 -1.6107169450250038 0.0
311 2 2.8323668527197334 16.115829306113145 0.0 5.0721909703101025 -3.951257233094286 0.0
312 1 16.44088032968667 13.776525095732248 0.0 7.937665039675529 5.682119601532069 0.0
313 1 0.6744828111088816 7.55053022355549 0.0 9.579472511036348 2.7819957094913317 0.0
314 2 3.7581234926539104 16.083162985066924 0.0 -2.911050568524265 -1.5951967771235789 0.0
315 2 1.161850102524039 11.069031015572449 0.0 -0.49312165962357546 1.0138275334199431 0.0
316 1 8.8994936518372 4.044373408383096 0.0 -3.0296718752647904 8.036661330886858 0.0
317 2 12.248888949728718 12.778884129486967 0.0 3.605306120609387 4.269515270666325 0.0
318 2 1.168031884108903 4.048071852906095 0.0 2.918409283868503 8.069678678203974 0.0
319 1 6.66966572786726 7.886944117618119 0.0 8.313345213510763 -2.220691564528303 0.0
320 2 6.196692655820752 4.042777379723166 0.0 -2.8078715818444526 -0.08379034738647492 0.0
321 1 0.7885524392364341 17.808107825385548 0.0 4.529699702143043 2.0677734927206672 0.0
322 1 15.27810722673555 15.670450872346374 0.0 -4.02793209459342 4.2873261237283575 0.0
323 1 4.748712638275184 2.6666194759417445 0.0 -1.7573859323012606 -4.201588762282193 0.0
324 2 9.834329423565569 4.695580821417571 0.0 0.9708802952630415 -0.5777141344080774 0.0
325 1 10.556201835730016 19.250619878310765 0.0 -8.346979924056324 -1.6205259214528906 0.0
326 1 10.487808474769768 15.624977668776408 0.0 4.798983664632498 0.8276344160465677 0.0
327 2 16.097511134118815 8.81783990651472 0.0 -4.4695411097782864 -3.0802431342047165 0.0
328 1 14.24656549431701 19.334083621464288 0.0 -1.8115227017855033 -0.946168493387919 0.0
329 1 10.89330898339607 7.716945247310551 0.0 -3.0611968029502212 1.8222711914599474 0.0
330 2 11.691455406081499 18.27738293193411 0.0 -10.617920125321827 2.5490095714734315 0.0
331 2 10.958751832416981 1.9923842097703763 0.0 8.455279422447816 12.36753537484136 0.0
332 2 19.407329848312514 5.347353721886081 0.0 12.222722131126737 -6.906075964870758 0.0
333 1 7.003979736135138 11.165835882915347 0.0 -19.07197580380299 -6.456352784162824 0.0
334 1 8.300014064786321 5.373623974777725 0.0 1.5719732401051 -15.54097974231636 0.0
335 1 8.964987820502 18.30682298642633 0.0 4.310067946986878 -6.931361448674871 0.0
336 1 15.726586721313211 1.7371018612126599 0.0 -11.217973939253683 -3.4651082344600237 0.0
337 2 8.118994840472814 14.966312822752442 0.0 1.9491989737613875 5.426142035641815 0.0