ITEM: TIMESTEP
0
ITEM: NUMBER OF ATOMS
400
ITEM: BOX BOUNDS xy xz yz pp pp pp
0.0 19.7609 0.0
0.0 19.7609 0.0
0.0 10.0 0.0
ITEM: ATOMS id type x y z vx vy vz
1 1 11.249709417534747 2.766424260662396 0.0 6.7442970170487175 -4.064067233847845 0.0
2 2 4.361852643752774 10.616707716043583 0.0 -5.498720008160616 10.88483208669693 0.0
3 1 7.960349888373559 2.4357108371872473 0.0 -22.303167450879414 2.8280697294149233 0.0
4 1 19.57516538667473 8.27867872616633 0.0 0.666254327776127 -10.430733571675571 0.0
5 1 19.495876138941874 0.7923030191040177 0.0 -11.623869362845193 15.843519748187031 0.0
6 2 5.021496317469833 5.70402379689323 0.0 2.3750486140832234 7.964243820590734 0.0
7 2 0.045452072833742765 4.722740166412084 0.0 1.0583445405022074 -2.1644296658999695 0.0
8 1 17.375478553191105 4.189840758764195 0.0 -9.314828197433025 9.301622724509023 0.0
9 2 18.157856019304266 7.7146146830126785 0.0 6.847059934305601 -5.021726068997638 0.0
10 1 10.240979236387908 9.06759371092441 0.0 0.03778783275172817 11.338635285688644 0.0
11 2 4.724016931272238 19.482328675410955 0.0 0.9929392089201698 -3.0873563653641223 0.0
12 1 9.908252470169453 13.638927938573183 0.0 -3.3316633281631693 -7.4208835205040655 0.0
13 2 5.52492516713616 1.3002809519952758 0.0 3.0186562757317446 -0.08808084664851581 0.0
14 2 18.03728295058983 18.542770397878197 0.0 -4.0705589693743445 -6.464312236570608 0.0
15 2 7.762127557867702 10.525245592677251 0.0 16.39376566885971 7.6267836571493755 0.0
16 1 6.091747092138942 14.553862946762521 0.0 -17.10301774444438 -10.312708611938886 0.0
17 1 11.508916990525641 5.661837500566834 0.0 -2.0189525928656096 -8.606395183181242 0.0
18 2 15.78688506807141 4.861678997523933 0.0 1.7197764547246444 3.7743415079336615 0.0
19 1 11.567136075691502 8.883042297646412 0.0 -2.5270541186717117 -5.869032103422685 0.0
20 1 12.753501782218454 14.528807192289094 0.0 0.21259463954677862 0.5558375284370051 0.0
21 1 17.384572455869947 16.696503114459436 0.0 -4.807249464079584 6.080333691857276 0.0
22 2 11.764547665136869 14.002042638646785 0.0 -4.353627848112263 0.4561936124111157 0.0
23 1 1.173821311613605 10.565027127346639 0.0 4.589618662507262 5.122659107733988 0.0
24 1 7.712059915470095 16.93905984703901 0.0 10.906999377008097 3.7947699139305096 0.0
25 1 12.274485820632421 17.04171988194223 0.0 1.8224240424728237 -0.37025181151230624 0.0
26 1 10.641704000100916 5.60954567608109 0.0 -1.1971729318794149 0.6422551980371999 0.0
27 1 10.117599253536488 11.472018809607361 0.0 5.819574583583252 12.745621071360974 0.0
28 1 17.87429569273657 12.718851605644923 0.0 -12.921934804140122 10.751120855970491 0.0
29 2 17.37763945982064 10.633599667779624 0.0 2.976633168955524 -3.263201787693839 0.0
30 1 13.533724722195561 12.026513698254554 0.0 2.454140347082984 19.568339686694777 0.0
31 1 16.567961604521766 6.4028351468555265 0.0 0.9735883074566657 -8.763835239291911 0.0
32 2 17.581426902440352 14.11608989233224 0.0 1.5561248993551204 -9.20247509199217 0.0
33 1 2.7146339844027354 14.080968691698668 0.0 -0.06808908621092875 8.82806798003013 0.0
34 1 10.949744268711548 10.150065538896037 0.0 -1.2462409244854136 -4.544559373804381 0.0
35 1 10.644505128683866 17.895730364983315 0.0 5.441964036534248 9.068190345246387 0.0
36 2 16.68949469512933 8.191164155177418 0.0 -8.714313589154694 1.09207021066237 0.0
37 1 18.593128028703802 2.594589758685256 0.0 -4.999580360200099 8.730474289433138 0.0
38 2 15.213219620416249 8.348693853564708 0.0 5.995650535371277 13.258173794276123 0.0
39 2 8.284405360301985 17.90956419420297 0.0 6.852032764502067 -2.5415139624194754 0.0
40 1 17.612891638383015 1.0792960402942484 0.0 -10.858708315057154 7.494814494669072 0.0
41 2 5.422535846338364 6.897687893821603 0.0 8.614847218552121 -2.768262130577297 0.0
42 1 8.393122763660411 0.6607677289730318 0.0 6.040846774054251 13.955438251889918 0.0
43 1 10.050924410037803 10.676071852520755 0.0 -4.643262609400074 4.552128369318269 0.0
44 2 14.316232775354887 10.476197721826543 0.0 -3.189584513058397 1.6912041870612295 0.0
45 1 16.117282901908958 9.859240719670765 0.0 -10.700053428121723 14.332106540944011 0.0
46 1 6.504994917878075 16.278281247814952 0.0 3.2160542379040837 -4.594987123340451 0.0
47 2 14.043935063919278 0.627552271037632 0.0 -1.6982378312165254 7.542799076979726 0.0
48 2 3.0534597258808476 7.0771774652759785 0.0 12.211160525220228 9.03554481981049 0.0
49 1 6.317978980623974 11.520019741841404 0.0 1.071731691164701 6.50672347838173 0.0
50 2 0.13122126395854053 3.6201758634749366 0.0 2.9019296700405532 8.70811671620473 0.0
51 1 5.281563337000559 10.88760441801893 0.0 0.9297545580607919 13.901033477210344 0.0
52 2 2.148317517488985 7.312924642124219 0.0 -1.4565625162313072 5.3430355253594355 0.0
53 2 13.700060063752902 5.349440315298278 0.0 1.7492076113409245 11.606380680965525 0.0
54 1 10.344995289111765 4.7145807599808505 0.0 -5.8359416349942475 6.483485380094923 0.0
55 1 1.0570359032105547 2.916651235063989 0.0 15.520791365202735 1.687825275149709 0.0
56 1 16.91425497726208 9.838316962107527 0.0 -4.485152233144608 -2.9062308640445185 0.0
57 1 17.148455410148273 17.644944092522678 0.0 -4.537264882515503 5.3396642318650445 0.0
58 2 14.296335255823928 8.708828760797903 0.0 -4.397105295970191 -7.151843607114881 0.0
59 2 3.2956058732150355 4.43411070044992 0.0 -4.50253681337433 8.208137266269244 0.0
60 1 16.24325090704957 1.1940049006603235 0.0 -7.408702722454026 -4.745071519226996 0.0
61 2 18.919545848797025 18.667777351196246 0.0 3.600075410021299 1.9007866025671702 0.0
62 1 19.686702076207407 12.97015851218279 0.0 -1.6217112941411647 9.182910331420588 0.0
63 1 16.598124858098586 2.4489332514169524 0.0 5.651634729515867 15.692880564559571 0.0
64 2 8.186059355517628 15.413964699930078 0.0 -1.317940664049481 7.779599775238517 0.0
65 1 18.14181984856787 5.55700141067006 0.0 1.3737184906425932 -14.126531511408547 0.0
66 2 13.315171517171489 17.99903047512263 0.0 -6.579712739461612 -5.634980996323607 0.0
67 1 6.486616702161977 1.8640328075305448 0.0 -0.9995391871742241 15.146561974549742 0.0
68 2 1.0969711452979458 8.374378481617075 0.0 5.000901090002331 0.7556555599037352 0.0
69 2 14.17037984466157 6.442493221177516 0.0 -2.2792349755298926 -7.456681120353979 0.0
70 1 16.604790612713646 1.9226132187284857 0.0 2.0312331870453266 16.463695341872295 0.0
71 1 11.561470256729837 10.77010437842011 0.0 -4.260306986611006 1.78239551241435 0.0
72 1 4.8093971602060615 1.0890368385679738 0.0 4.08351319645664 9.405332854366966 0.0
73 1 4.136957641208537 18.024481781110303 0.0 5.177277523081523 -4.285159794561268 0.0
74 1 1.24841889789859 5.9163534373525 0.0 4.289435781090363 -9.711255961271933 0.0
75 2 7.384229973793316 1.6727389738559686 0.0 -3.4973239843091677 0.00632897583293003 0.0
76 1 10.305861224657471 1.3285101099981231 0.0 13.903105835697568 -7.548006134247107 0.0
77 1 15.745564958000736 16.701364500881684 0.0 -0.06366938402595453 -4.883396002485093 0.0
78 2 7.6703940866889395 11.546994325728766 0.0 -2.038079438735284 6.748777693382435 0.0
79 1 8.04049371777502 19.598475791255673 0.0 0.3151962360015945 2.830244913472947 0.0
80 2 4.0935213748259125 15.981019811187236 0.0 -4.5023025394811915 1.505625109470177 0.0
81 1 15.31924415816887 14.237085523140713 0.0 -3.1760062836083804 1.648723861813935 0.0
82 2 5.724509183320186 12.26264138820473 0.0 10.725449828647184 -4.360310618613928 0.0
83 1 16.464544150299737 0.2020939341764534 0.0 -9.682018774670263 -0.6362020470825009 0.0
84 2 16.22654395009766 13.519498423213367 0.0 4.539671846464791 5.900606445090918 0.0
85 1 10.301421356748483 5.2250798921239126 0.0 -6.635546486852328 -5.558835650798901 0.0
86 1 1.9689175863826123 9.748205392295587 0.0 -2.8812086544724465 7.665908476235466 0.0
87 1 0.7874227902275369 9.68163836286368 0.0 7.74284971582747 -1.9563526264305215 0.0
88 2 0.23437042095370944 2.610071114556349 0.0 -1.3064310266565047 2.373106746211638 0.0
89 1 3.7067553759873104 9.346038764276518 0.0 -14.287129785701252 -2.0503886030859078 0.0
90 2 12.207549473571387 9.394302296496102 0.0 -5.819716056444297 -2.5621505398057627 0.0
91 2 14.268632988041924 1.8203164338506563 0.0 4.498211472000323 -6.001628602435434 0.0
92 1 16.103049004210074 19.653235719047405 0.0 -6.241804301861538 -2.3715196553455447 0.0
93 1 17.775396119742926 2.7451095422269125 0.0 24.403155353095777 -13.707930779556765 0.0
94 1 8.192446132410923 8.483736370420473 0.0 14.418902377475204 5.532577146002823 0.0
95 2 14.133314095049483 3.8403935661691415 0.0 -0.6142750568685226 -1.5761631811834773 0.0
96 2 15.070871619357236 9.159276309925902 0.0 -0.30248686050755974 -7.159400435854252 0.0
97 1 15.737966654108806 14.779834140993408 0.0 2.8442245743739076 -3.315005795267075 0.0
98 2 19.68992795982333 17.02275153156083 0.0 -7.8627010545270375 -20.503700713083212 0.0
99 1 2.8873354211044875 7.993522981740301 0.0 15.07297268486634 -20.559508324017838 0.0
100 1 3.3441479233026437 17.534103995827802 0.0 7.9957965705795155 -10.50490237443643 0.0
101 1 17.79115586960891 6.182976520162864 0.0 1.5079904589632986 10.417966642339216 0.0
102 1 14.810334672561982 3.5671324060736724 0.0 -10.853621515646577 -4.01346481155068 0.0
103 1 9.25950658295254 6.2783624063227155 0.0 -11.959701321470812 -11.109742192781791 0.0
104 2 18.60212924338852 4.532555617824777 0.0 8.871023102828953 -2.9425793547320778 0.0
105 1 5.461065042245074 16.138351485269578 0.0 2.7472124302205856 3.9761890701178944 0.0
106 1 17.733762187538986 13.250445099783716 0.0 -5.859085179978213 5.808677723382672 0.0
107 1 9.010772950114763 9.516256307189147 0.0 2.377539723386678 5.308002691177749 0.0
108 2 2.0261802376859146 19.67797294227957 0.0 4.891581097651564 -0.1733659957191952 0.0
109 1 15.580136780416481 4.05043042326134 0.0 7.9069210886428145 -7.13215940593001 0.0
110 2 10.992889536257938 17.164609175449815 0.0 -2.859990764402546 -10.096505783266558 0.0
111 1 2.052795567906775 15.94858212810373 0.0 -11.555368085508526 -5.6565638401191265 0.0
112 1 19.569527976171006 7.690153042448206 0.0 1.4743553163052394 15.037674446056915 0.0
113 1 2.9796983754644817 9.689330361420287 0.0 2.1455341521723192 5.656409416078355 0.0
114 1 6.852794734604488 10.320242380082405 0.0 10.771863642927181 -0.628206599508627 0.0
115 1 3.9392819729710493 1.573122731590156 0.0 0.2631885089892084 -8.450715399588034 0.0
116 2 15.980684000627747 12.572792842546447 0.0 -1.5501178642135327 -9.905485216297512 0.0
117 2 17.326774193878382 5.188829903972233 0.0 12.251878353838851 -11.073147339259586 0.0
118 1 18.993229543809644 10.643612658706267 0.0 -21.494018947150558 -3.775325991054079 0.0
119 1 0.7414325423418748 6.222357382446307 0.0 -0.8326901814164853 2.7215261665475676 0.0
120 2 10.8315576754595 1.893746302313685 0.0 -8.654428064218724 -6.220921834210058 0.0
121 2 12.492226468211488 2.9501582516277374 0.0 -3.5033093594815132 -14.79577354323591 0.0
122 1 2.365551138252359 17.085552639271214 0.0 -3.2006180873806307 2.571536360828216 0.0
123 2 0.6170677256899476 16.42997031722489 0.0 -4.442057490350252 -1.1913160908491045 0.0
124 2 10.896675201051687 4.0307087378694 0.0 7.277427095820583 -2.160653923077211 0.0
125 2 1.268665167871411 18.347154179201826 0.0 -1.3012541062960015 -4.72997951727602 0.0
126 2 19.569301085154876 14.981527397212405 0.0 1.3624732237783652 -2.1640235251927513 0.0
127 2 2.1326611776365647 1.2871889425190326 0.0 4.343866382034134 -4.175363146431265 0.0
128 2 7.469733371377138 13.320661095158014 0.0 -3.854632515998146 5.328725784860288 0.0
129 2 7.25948301509167 14.292003999469193 0.0 -4.128096500835029 2.577154634188352 0.0
130 1 1.2073357281694863 6.90055614479651 0.0 -4.043921506766142 7.444683571816682 0.0
131 1 3.2396028540134547 10.14024486330499 0.0 -9.354908979240223 6.554261606814234 0.0
132 1 15.067715547531678 13.325890233676516 0.0 -6.749451083048036 -5.322594526343189 0.0
133 2 3.2693895673917797 11.42199572754032 0.0 -3.1086795080543017 -0.35383263624055006 0.0
134 2 3.23516098971973 14.579750842450517 0.0 -6.294720641781894 -5.717088440214014 0.0
135 2 4.538806592408924 16.868082344922975 0.0 2.641193009366894 -0.9102130078437093 0.0
136 1 8.595080856249433 7.172972742053147 0.0 4.921171653600784 3.6863168734722356 0.0
137 2 14.79247109303364 7.074755008635181 0.0 7.346159032436955 -0.38988670034044043 0.0
138 1 5.900676204128144 2.9108109500793296 0.0 -3.4268435760902842 -4.591312006951137 0.0
139 1 9.131652398476954 12.659971265741493 0.0 2.6087464460061702 10.086507583840813 0.0
140 2 17.974791872373007 0.15298160337866037 0.0 3.747234214803288 -5.892195564482712 0.0
141 2 7.326866719539359 7.4730699642212 0.0 2.2436867466464494 -2.3855827838797152 0.0
142 2 2.337112395829211 10.687208173681867 0.0 -9.742956392188187 2.9116391699983017 0.0
143 1 17.018939334171453 5.966364603115743 0.0 -3.040775401237183 -7.971515404662169 0.0
144 1 4.91437241669937 18.287616024923512 0.0 -17.044373131459032 -6.426318980075539 0.0
145 1 9.42429090139209 3.837008476821401 0.0 0.937455834652028 -9.458538651435305 0.0
146 2 1.4376663434709878 15.36919118546983 0.0 5.1710942399829065 -1.6976604072276973 0.0
147 2 0.7235894903725972 0.8321661699713384 0.0 0.48151549957196876 -0.5517397698977982 0.0
148 2 3.2319919225175973 1.1191342455700826 0.0 14.844974977703403 -2.178125219413778 0.0
149 2 3.01851462885487 0.15764310971945034 0.0 -0.4198881214780244 -2.061421848451771 0.0
150 2 5.6077031151371495 8.718321397484559 0.0 -0.023184243960161905 4.224092701731141 0.0
151 2 12.831077344387673 10.48537788235471 0.0 -0.6216317342950337 12.169935319504608 0.0
152 1 7.195526154879988 5.283113813699295 0.0 -1.8127760847031957 4.436795543700733 0.0
153 2 13.292920851453005 0.08741477760587812 0.0 -3.2428575521605962 -9.245431510561163 0.0
154 2 11.541709132372329 16.211521613114115 0.0 8.308400695366736 -8.637631977251141 0.0
155 1 14.851350755368156 19.30545178762829 0.0 2.632614293886404 1.5308047504715045 0.0
156 1 15.693262338870348 3.53895514615506 0.0 14.41034268461252 -0.5023263924313726 0.0
157 2 19.050172622829475 5.8670388953842885 0.0 7.1505588010649985 -7.349029127766518 0.0
158 2 18.691081173228017 16.60421565102281 0.0 -10.29441656277575 -3.3752265751071167 0.0
159 1 1.155762628677544 12.6127696785122 0.0 16.103400272507525 -9.24913504603828 0.0
160 1 9.748870565564518 2.771152240745022 0.0 -4.03771725404458 3.1791583752520647 0.0
161 2 4.078267337036213 11.67161738689663 0.0 2.853913845337849 -13.995613042032543 0.0
162 1 9.125609399719337 2.839870523083389 0.0 7.456959313423638 -6.421656550550761 0.0
163 2 4.483081661908193 13.750222686416269 0.0 2.716274674730314 -7.015397031045543 0.0
164 1 16.60027862287018 17.228719794576904 0.0 -0.8493798638672726 -7.400798020148502 0.0
165 2 15.556683836552716 2.6610192096814203 0.0 10.834788176864912 -6.918719340900963 0.0
166 1 9.225653446256677 4.924823557197132 0.0 4.5718699265862535 -18.716617094763997 0.0
167 2 5.502998925377116 9.70371018904027 0.0 3.3838690350510645 5.359216746143708 0.0
168 1 15.167734914147363 12.90470171621028 0.0 8.735564921864293 -3.3961303184357283 0.0
169 1 10.498962918786722 18.331087922148637 0.0 15.30633347565257 -5.856054798072699 0.0
170 1 9.672971511712587 12.520031218845126 0.0 -2.0979235859108756 -8.061005623720014 0.0
171 1 14.110574004731665 14.28289267121745 0.0 -1.8732535401762622 15.416988658631562 0.0
172 1 3.1228606735549342 16.224482859312342 0.0 5.722775589369977 -7.9948771045955755 0.0
173 2 8.64900813710015 11.434576907955021 0.0 -8.103095383792482 8.387293584840961 0.0
174 1 5.201949218072726 15.76616016520256 0.0 14.496608415145987 -12.439003582530924 0.0
175 2 7.485285300038301 0.5186956158161016 0.0 -1.7057611674948612 6.321185745757686 0.0
176 2 5.088282620855325 7.964967918461731 0.0 -3.503361173344217 -4.320968346208569 0.0
177 1 17.571762916133192 17.24629908557757 0.0 -1.6918307121532241 -6.526177289134904 0.0
178 1 1.5307417703996893 16.429801072798817 0.0 -1.2065281787651734 5.348444829471408 0.0
179 2 12.480733570537856 1.6754971800532015 0.0 1.6050290846368624 -1.0214235805287617 0.0
180 2 12.480615062291495 13.218375097006305 0.0 0.4828018610203591 14.435095771609538 0.0
181 1 6.825347447041257 12.40524976982607 0.0 -0.9291945451246333 8.737042541460475 0.0
182 2 2.503059352058042 2.588852001385274 0.0 -9.033647873399174 0.11502160441107386 0.0
183 1 2.3590351937432867 5.057523439288765 0.0 17.237220698600098 22.69367264461523 0.0
184 1 18.6726981474702 12.339328942523432 0.0 16.51283733937962 -3.480822180920663 0.0
185 1 12.770657621584677 6.882293110217122 0.0 3.431616333910851 -3.648961634519111 0.0
186 1 10.917476962255721 11.265829021584313 0.0 -7.049390157659483 4.893188482470536 0.0
187 1 16.14691459284881 17.499873671128952 0.0 -12.127187168548685 -18.455683930127073 0.0
188 1 9.863608537049391 5.022949814361617 0.0 -10.33999266226581 -17.141538152796045 0.0
189 2 4.779933126964311 4.307979461274563 0.0 -4.772991481302566 0.6985174567473734 0.0
190 1 15.639507188281227 11.33973694747005 0.0 -3.841627193143935 -4.293656495069702 0.0
191 2 6.488521291622941 15.348568755700025 0.0 9.067669121390423 -0.19157222275230493 0.0
192 2 1.0788524028106006 11.426128515118778 0.0 2.3642677177499327 -4.561957142448515 0.0
193 1 6.555477480939292 0.525124116962248 0.0 -7.106737702985552 1.2491490405353485 0.0
194 1 12.114981264852455 11.940411752435397 0.0 -7.637428287716766 -5.943367630906602 0.0
195 2 18.049167689961894 8.635661615345638 0.0 -0.2841114083479517 5.855697228738115 0.0
196 1 6.8320653924591355 11.793348032805147 0.0 6.219690403962543 3.4826158629903947 0.0
197 1 10.263315716540435 12.128078887928572 0.0 16.960109924153137 2.7782677607930952 0.0
198 2 15.240443562330498 10.571806269598806 0.0 -2.730527648302611 7.229848214095313 0.0
199 2 8.763693269917827 0.0013257579678653852 0.0 6.552078457289691 1.0982633002485698 0.0
200 1 18.05988733018819 6.694607712162695 0.0 19.468968639029107 -19.669321465512247 0.0
201 2 8.167566884944199 14.49135452399629 0.0 -2.301001524989403 -1.861875597348511 0.0
202 2 14.992359000298702 17.169995923273735 0.0 7.407479320543832 1.2545424726489998 0.0
203 2 13.432411254758236 16.16448608707225 0.0 7.727774906944157 13.93302567106842 0.0
204 1 9.821787704375422 9.751319298144562 0.0 -0.9715710621756922 5.758841819744955 0.0
205 2 8.436685148447923 1.5387972426872767 0.0 -1.0357528875743451 11.35611255966171 0.0
206 1 8.803148189260389 13.739835296144268 0.0 0.06464957791302627 15.307502627746501 0.0
207 1 13.060302958770071 11.288349725686283 0.0 2.8333794815301903 4.7886269013703116 0.0
208 2 13.117479473903348 9.381896310458753 0.0 3.652705058005974 1.216595593475511 0.0
209 1 16.992869127284337 2.23219374366161 0.0 -0.20464585413001987 -10.52140239023768 0.0
210 1 18.327280012964327 1.4961688982293226 0.0 8.835429713183409 4.708087580690949 0.0
211 1 10.332688882732596 7.38973635995468 0.0 4.8415655540064915 -0.9838330110905196 0.0
212 1 0.5207780762382953 7.088229205373831 0.0 1.3213573439606265 9.9803647697525 0.0
213 2 16.50358506097954 10.791064333337745 0.0 7.590808457984352 0.05613437772822897 0.0
214 1 8.36358695058406 7.745669437320895 0.0 6.025266602113234 9.961353688784007 0.0
215 1 7.023501645020001 19.554045258384978 0.0 -6.884337260941406 -23.58478240358814 0.0
216 1 17.236196353510593 6.479901839974026 0.0 3.714214652593696 5.987270009115485 0.0
217 1 1.2411382675462024 9.401225272438648 0.0 -7.624078252570267 4.339569111968642 0.0
218 1 13.149328256004804 4.134746527479391 0.0 -3.572632104471718 -14.870982020079918 0.0
219 1 4.2051033301268355 6.7936015955956846 0.0 15.039469727276483 6.738900687526583 0.0
220 1 17.10183232603534 11.597534290601837 0.0 6.305980189260031 -3.800226734025804 0.0
221 2 7.89044106854023 9.371347752056131 0.0 4.971898477582475 10.65010657657669 0.0
222 2 3.237676028115624 12.503184637316888 0.0 -7.137905475986052 -13.207916712078914 0.0
223 1 11.741641143244095 17.617344255960514 0.0 21.353277005296 -5.678157154304865 0.0
224 1 3.1973342165754444 1.9296839948455926 0.0 5.9202962076387475 0.538880334301981 0.0
225 1 6.581236581470484 4.048043133635363 0.0 -10.92665170026199 8.071643515724517 0.0
226 1 10.151345943453446 3.806116194200936 0.0 5.039758711413824 -5.383522955746701 0.0
227 1 7.102183826321396 16.53469078709272 0.0 4.532627474374337 2.3813739068742796 0.0
228 1 18.33680358120575 17.746024201441603 0.0 -20.310549935220173 5.4157905830902315 0.0
229 2 3.733844778095753 3.0197865331525473 0.0 -4.070319720156096 -1.9156855191549098 0.0
230 1 4.78875829582946 1.9111041614886677 0.0 -20.288031127891568 -2.8168800502108278 0.0
231 1 9.463575301077395 14.451149287494642 0.0 -7.925413205269952 -7.2752946115991985 0.0
232 2 1.647338853878625 4.019798823913065 0.0 -4.098796088517369 0.6261848857893186 0.0
233 2 19.74257833070592 11.911829724092236 0.0 7.950745435889177 0.05179403803395549 0.0
234 1 19.687832008248655 6.721839922508672 0.0 -0.33380556171113246 8.958708741292389 0.0
235 1 11.994841061733403 12.650604008983867 0.0 -4.559726927682692 -12.386468471599164 0.0
236 1 13.080262417686754 0.8375526583679058 0.0 -2.030992475466368 5.62707216437139 0.0
237 2 2.1309744501940098 8.914440153096887 0.0 -2.2917473922040146 4.444377070349263 0.0
238 2 17.019387953442273 9.070247863216373 0.0 0.346456235796962 8.494849777656048 0.0
239 1 19.535856270561435 19.36742354016467 0.0 -6.139074011943929 -4.039822094751296 0.0
240 1 12.447433835664143 3.7727658779647983 0.0 11.491315595250372 0.1531036740609792 0.0
241 1 15.896270541764634 14.239600925321673 0.0 -4.15086127474825 -2.602466133405597 0.0
242 2 9.625129508371902 0.32064950529943137 0.0 -3.9718828391703567 2.0287575150285226 0.0
243 1 12.784259198350822 15.121764161261114 0.0 -3.048110485668725 -5.9915958056641445 0.0
244 2 19.510234972099635 15.855053746267481 0.0 -8.657001722104935 3.5119230319432084 0.0
245 2 8.783966845787273 10.54158684813697 0.0 -5.4399666643214495 -2.0234653848413853 0.0
246 2 9.6911276419795 18.659451539947273 0.0 -2.5839013370753543 5.2099726605184635 0.0
247 1 1.6187640865427106 10.266349281954605 0.0 -6.418577108589769 -8.348180252078961 0.0
248 2 18.978756505997467 14.384422939363644 0.0 2.116208772022658 3.303647958713908 0.0
249 2 3.9076658921633003 0.4233640164779498 0.0 -12.627798849332583 0.394692719031118 0.0
250 2 18.927724635252144 13.377025394698158 0.0 -0.337861511391651 -10.893534491960049 0.0
251 1 16.58970530903958 4.576809159094937 0.0 5.701068434528779 -12.811038905497382 0.0
252 2 16.188878280101783 5.645312186715534 0.0 2.572374225121868 -0.21373606538882184 0.0
253 1 10.349147421990516 9.566446503477252 0.0 -21.6364032758411 -0.04924129996519146 0.0
254 1 0.0209036628421939 8.939713985614452 0.0 5.8035928671344905 5.768310214077111 0.0
255 1 11.512852596211749 1.3805598093089482 0.0 3.0424685423744005 -7.329829247374513 0.0
256 2 2.6916419502709976 18.914959519458183 0.0 2.3258982973810953 4.75528340701017 0.0
257 1 2.112486151187187 12.772318008645318 0.0 7.6017914652497005 14.145700509602422 0.0
258 2 5.923062226135696 4.942570778149994 0.0 -8.76814783377509 4.191665064464709 0.0
259 2 4.512104033631108 14.584428837031037 0.0 4.916928028621253 7.687715512457352 0.0
260 2 13.372987242834268 17.140141368501897 0.0 -8.064059768830996 -3.574938607561405 0.0
261 2 15.278051720564552 15.455058686210455 0.0 -12.77160704213923 2.633484159818454 0.0
262 1 2.003049173654954 13.752804006796696 0.0 1.3284573661560113 0.7913237561660034 0.0
263 2 9.704097543748487 8.106611988982493 0.0 3.4678231263895087 1.5080709061997546 0.0
264 2 2.999004058179371 5.794199148400337 0.0 8.771577414506325 -5.158608921706603 0.0
265 1 8.724413723838794 13.103715174877156 0.0 -6.368322082621457 -2.0843791503298283 0.0
266 2 16.803685990012383 3.499910127756551 0.0 5.314294999393795 5.676876179017441 0.0
267 2 18.82491427545794 8.69513194555027 0.0 -5.379764957149898 1.3900229887964048 0.0
268 1 9.581670707496896 1.2698967635051186 0.0 9.753264579430898 -13.881735508481132 0.0
269 2 12.715685324878114 4.937181705873202 0.0 -0.7462380506459774 3.09243526692531 0.0
270 2 6.005830104756979 10.366274105339315 0.0 0.3931442712995206 1.0401030081667582 0.0
271 2 14.649095431812816 16.297932774311498 0.0 -0.49424366767531014 0.37944215671540626 0.0
272 1 13.520023640094053 10.910733182930793 0.0 0.3338034025952993 1.3254372180135734 0.0
273 2 18.917612254948743 11.391070900351018 0.0 1.341022382284542 -2.9342727489682767 0.0
274 2 8.212380293887566 3.382391242391122 0.0 9.530344650709788 4.721403193282233 0.0
275 1 4.113060522558359 9.164124527636451 0.0 3.959929147542056 3.988272417104103 0.0
276 1 14.722072729344024 5.08456563162917 0.0 8.920003119059771 20.112663963766572 0.0
277 1 11.046593168463295 9.547256648142252 0.0 -3.673598586549118 5.406515107692361 0.0
278 2 6.48352532178999 6.836096190903791 0.0 3.7023799307313205 -4.658079896336275 0.0
279 1 8.812946033695486 8.723834530544227 0.0 -20.12905491377543 -21.101462645267645 0.0
280 2 5.720302340234243 17.770205352746583 0.0 -2.9743332381042435 6.732970215676489 0.0
281 2 2.447075203969332 15.121429230969554 0.0 4.791135772399083 -1.7221584875796747 0.0
282 1 12.821960852539048 7.806748605678025 0.0 -15.789909820963805 15.454957055708523 0.0
283 2 15.087703044222101 12.028636137421909 0.0 2.808784344019786 -0.586053755054235 0.0
284 2 16.079595904050347 15.704409405420954 0.0 -6.922400232909572 1.9241526913916982 0.0
285 2 11.633659287971309 8.065066192554085 0.0 1.6714313805587047 -13.26574945198359 0.0
286 2 8.710785068264302 17.043499399058344 0.0 -8.039350814797494 0.9984539397173958 0.0
287 1 13.532521927675639 13.323757712634182 0.0 -2.8668431458679886 1.7957095564381755 0.0
288 1 8.557577290670359 16.22289622669404 0.0 -0.30033589673683886 16.040733469347323 0.0
289 1 14.518281424138499 17.693790135370936 0.0 -2.6726682870203673 1.9431559655582202 0.0
290 1 0.4456287334410311 18.787393269549238 0.0 11.904172358976044 4.518610691305878 0.0
291 1 14.131154135418658 18.728381320464205 0.0 -4.9898313610431115 -13.177880864683715 0.0
292 2 16.875341771050895 7.292347895497572 0.0 -5.406489559031258 12.697277015458566 0.0
293 1 13.5554689034782 19.069590569034187 0.0 -8.275623789177665 2.7102993846094825 0.0
294 1 7.3629714132315955 8.608278228189263 0.0 -1.0689177877936085 5.458555057087759 0.0
295 1 15.123504587210526 3.849991884267498 0.0 -12.858211193910678 -20.339253846088262 0.0
296 1 15.80286276659775 0.4727408086157712 0.0 -4.597022522790919 7.262058431283344 0.0
297 1 11.199962857273539 17.985586822178426 0.0 5.697492968982964 9.715265796513405 0.0
298 1 4.1005582521672626 12.951752464600306 0.0 -12.900261987799933 -8.580071199297599 0.0
299 2 14.260390295024603 15.284595327512276 0.0 -5.318153511567121 -10.605667519088804 0.0
300 2 16.947107885813143 15.412001100563854 0.0 -3.3050787410947633 -0.9032876556824372 0.0
301 2 2.028856492813282 11.849112632828438 0.0 -10.274086306018745 17.152934318795555 0.0
302 2 10.637117233657317 19.212995703505804 0.0 -3.1476641618757966 8.333495308464933 0.0
303 2 7.342296783260365 6.445059162205817 0.0 -4.5301786974498475 0.4826415241278409 0.0
304 2 16.61568123074602 14.486451077398346 0.0 -0.8212222457769676 -8.529269116023563 0.0
305 2 12.049241065195984 18.572842326030038 0.0 -0.1155264371771895 -5.215574838250161 0.0
306 2 18.163656768158265 14.95383847077094 0.0 1.2334298693707062 9.152196887893915 0.0
307 2 3.6960146860222607 18.981167683104445 0.0 1.9372401091526166 13.168850988276791 0.0
308 1 10.419230049110274 15.805100936006292 0.0 5.213368121938683 16.3224777383172 0.0
309 2 11.720323687540793 4.6234938505983765 0.0 -1.522894240967127 -1.46302105741041 0.0
310 1 8.64534469890582 2.6139635751687513 0.0 -3.926835852906819 12.164407851363082 0.0
311 2 6.016143491879415 6.057803383475555 0.0 1.065830419838976 1.769152688338314 0.0
312 1 3.2525168171009446 15.650652695554525 0.0 -1.9402941039108497 -11.881189070567844 0.0
313 1 10.547623585892778 2.574338476568264 0.0 2.39311581953993 1.6040779117919666 0.0
314 2 17.01998527736947 12.921665237509128 0.0 5.1269347877628215 6.236801289641263 0.0
315 2 15.572064234898159 6.526672785823544 0.0 -0.10886539371244675 -6.157203761159813 0.0
316 1 14.458260753325513 12.965836246400173 0.0 -5.539515487816393 -19.242305942735097 0.0
317 2 18.10031750385526 15.932733756091944 0.0 8.533924288622469 3.7609467348539845 0.0
318 2 1.3608003804264843 2.217987835129995 0.0 3.9463102342493084 -10.617446508745411 0.0
319 1 5.721275063305356 0.3805185788342406 0.0 -3.6971398723394557 -8.68606820538581 0.0
320 2 11.358888742477507 7.052392074327772 0.0 -2.3992346015851815 2.82950494078958 0.0
321 1 18.69564226977529 3.6518905324278874 0.0 1.1968013631141778 32.707236249953425 0.0
322 1 5.914087329477385 13.112388260735553 0.0 -1.1917093766292088 -7.713207046678957 0.0
323 1 19.297412508379846 2.19576624971882 0.0 -2.660360525527411 -4.204380157817861 0.0
324 2 5.797835338240374 16.81063485584369 0.0 -3.5500703733705956 4.811184208748226 0.0
325 1 4.791415802063674 12.4627443545896 0.0 0.8107995644106933 3.0205640390140944 0.0
326 1 15.190964604048759 19.70635741396949 0.0 8.410526538880212 8.145399486537217 0.0
327 2 17.842588195291103 9.499527091229632 0.0 -2.707879047041649 9.56923800201603 0.0
328 1 1.093889646166264 13.950827338662341 0.0 2.3636627890070083 10.992750908720028 0.0
329 1 19.506430060284096 9.639878346663016 0.0 5.240576627852482 9.209857454164625 0.0
330 2 0.9791947396669844 5.0804908434306855 0.0 1.0903446170757956 -1.5607916108434075 0.0
331 2 10.640771068481982 14.381460810668708 0.0 -8.588763929819697 12.133310213791608 0.0
332 2 7.655908974725014 18.480416610337333 0.0 -5.5484341792379634 -4.8199111637916925 0.0
333 1 18.29153823050859 6.060316016768663 0.0 8.07407946038456 -9.211110427753026 0.0
334 1 7.332917200088508 4.233315969671084 0.0 -13.99945798317451 -34.447998321756174 0.0
335 1 0.19686476831603716 9.448491266121904 0.0 1.143941029911628 -10.5983738752445 0.0
336 1 15.298140425312182 18.28786109771179 0.0 -2.2150403103593104 -14.113298436765186 0.0