ITEM: TIMESTEP
0
ITEM: NUMBER OF ATOMS
400
ITEM: BOX BOUNDS xy xz yz pp pp pp
0.0 19.7609 0.0
0.0 19.7609 0.0
0.0 10.0 0.0
ITEM: ATOMS id type x y z vx vy vz
1 1 19.434944022877715 5.4857241826611585 0.0 -3.0919289708501707 -4.749768212894909 0.0
2 2 18.83993811876954 1.8497499002617328 0.0 2.6130592705560702 2.3646500980366327 0.0
3 1 0.02912110208000135 8.500577303807148 0.0 8.356855584771525 16.196659634670233 0.0
4 1 7.661156562280046 0.1749521047149886 0.0 1.2264143049176266 1.1985383833654597 0.0
5 1 8.809980917192496 10.997872216316118 0.0 1.8640536800731802 -13.595441304623032 0.0
6 2 1.9609549347751023 12.452864246625664 0.0 -2.3991166893670175 -8.032402729604222 0.0
7 2 3.231068334909074 13.25786296950016 0.0 4.451559692825793 -3.054047359981543 0.0
8 1 16.371794665506464 8.245373722831395 0.0 -5.073181242306646 -9.453220217725882 0.0
9 2 0.8845422099959898 4.279611657471864 0.0 10.820939186738313 4.440281220887351 0.0
10 1 15.39930517992855 5.867471793968199 0.0 -2.2442727267691382 22.04038426835854 0.0
11 2 12.111473698883424 8.46290055117568 0.0 2.9844773324724776 1.1056062239055349 0.0
12 1 19.64911622969923 3.7008424565472353 0.0 -7.102471008041173 -7.291569840857467 0.0
13 2 1.6033565202454874 0.17971334368741163 0.0 -7.6529648144876985 10.025015256766133 0.0
14 2 5.978225091355357 3.3369579761426365 0.0 5.8491579009253645 2.6283225614039356 0.0
15 2 8.179903503280508 17.872803485888753 0.0 4.361014037405025 -0.013563500504510566 0.0
16 1 0.21242896505459433 15.499963011297803 0.0 -2.2946722928538366 3.810442316741919 0.0
17 1 9.382127260222745 11.452397816622488 0.0 2.0122110177145363 -2.171407181344975 0.0
18 2 17.644326640617823 11.696343311363659 0.0 -5.305170865660552 -9.638078197743837 0.0
19 1 10.49537922223137 3.5005692642661703 0.0 2.0990715921131655 7.503605736631936 0.0
20 1 8.907354550556342 4.054154046440191 0.0 -6.8067140250634015 -7.206418281556095 0.0
21 1 1.0293015415971307 12.649092792966876 0.0 -10.840376472251695 3.3257183911149557 0.0
22 2 2.3763302652745764 18.72503243723423 0.0 5.842194283880693 7.9587677338773695 0.0
23 1 17.364731874354238 6.688162566656185 0.0 3.952618492644624 -19.17449045522324 0.0
24 1 16.60403144278336 8.837959063153585 0.0 -2.3995563308014387 6.137779355647364 0.0
25 1 11.222370715920556 7.819048233895254 0.0 1.2016883763558335 9.65999815722645 0.0
26 1 2.854483401363514 9.521540729415927 0.0 17.439049226823315 -7.495197220257747 0.0
27 1 13.533863354912084 19.530626361162955 0.0 13.726449911711246 1.3746524779376343 0.0
28 1 4.822244715536891 7.717690002441966 0.0 -6.4337097768041325 8.121665490420837 0.0
29 2 12.75652593986775 19.035792433304405 0.0 -14.849852555536522 3.7115548025806753 0.0
30 1 15.81270402949159 16.290890746854124 0.0 10.547323862909504 -16.08473086342478 0.0
31 1 14.778631680286502 8.490043892957967 0.0 -6.553897570394936 4.062816832325705 0.0
32 2 1.7996335141910722 3.708749753582439 0.0 -13.99757212621539 11.81178202528191 0.0
33 1 13.65636220105912 3.5123206568560184 0.0 3.795355115879074 3.299313257905231 0.0
34 1 8.97384173958629 15.211063533341692 0.0 -8.647213017478007 -0.6380784076243914 0.0
35 1 4.059843957914118 4.138148361358388 0.0 4.919216504824781 13.714754764907646 0.0
36 2 6.037856218239904 17.8990352544245 0.0 -0.014736746045054585 0.6710498373355767 0.0
37 1 19.67998325915162 0.8667110282754582 0.0 7.028058598842722 11.32215020146389 0.0
38 2 9.743071634011804 13.979061002372998 0.0 -3.587004689250529 8.941619369400541 0.0
39 2 12.515428390187102 16.381269703049174 0.0 -7.710290184087645 -5.639248293716134 0.0
40 1 9.310912173940194 17.811335278665602 0.0 -6.614656733396941 8.478987608189861 0.0
41 2 11.0370592445839 5.8885198211756045 0.0 -0.04434870114984818 -4.800621068976622 0.0
42 1 15.200452961769356 7.689219207209443 0.0 -8.841638759767292 -2.414327823090981 0.0
43 1 8.942594419335087 17.202214400312663 0.0 -8.681874090075942 -0.9829662821155892 0.0
44 2 15.236202432696924 6.688657735500091 0.0 1.7425235742774308 2.887573480562506 0.0
45 1 14.036867929518811 19.40537861010069 0.0 -2.290371801745204 2.389920491579006 0.0
46 1 4.23788705391361 17.156535329607436 0.0 1.2174033272590041 15.639516783117445 0.0
47 2 1.0129982365041583 0.8954847108207308 0.0 6.162434235157763 -0.6932612620483025 0.0
48 2 2.654146585551205 14.536167013724153 0.0 -0.8298735620839279 5.118951521395088 0.0
49 1 7.474644116771743 2.0810384358888445 0.0 -3.817883344625424 5.198096407562677 0.0
50 2 14.015843611352755 9.753052068716336 0.0 -0.26615239397476226 7.639553207237139 0.0
51 1 17.52538793887955 1.2079231045172987 0.0 4.017966778076076 -0.3786010099828113 0.0
52 2 8.764899095660434 2.764898688476697 0.0 -9.979972697842445 2.9208985721582152 0.0
53 2 14.863530390488942 18.544785673871285 0.0 3.008275668210764 -0.28042200062001804 0.0
54 1 2.0475805426264326 10.575675261382882 0.0 5.926543623735402 -6.399825847979623 0.0
55 1 17.68444719857795 14.972287497671319 0.0 18.266588750440874 -1.44773083165598 0.0
56 1 19.236256961146683 9.734692460030635 0.0 12.084962721342272 -0.15482047159743142 0.0
57 1 4.022008698376591 11.392074708293482 0.0 -6.163747470641735 7.529397178849199 0.0
58 2 3.869095826027962 14.50922224176066 0.0 4.1200700903267675 10.387935414069794 0.0
59 2 4.587227374156145 10.507189510951516 0.0 -0.8546281455197883 -2.6080978272249573 0.0
60 1 17.758675727181814 18.337689100748044 0.0 -4.573997280186432 5.995233803058114 0.0
61 2 1.5953763948452186 6.218966941839322 0.0 2.797287167188033 5.9210332904024705 0.0
62 1 13.182635783760404 12.76960634818154 0.0 1.3950881245830797 6.387402744178587 0.0
63 1 18.547350276389736 2.715985806544685 0.0 5.1024063915339255 -0.7434933348610698 0.0
64 2 5.5384839236367105 8.470872974604793 0.0 6.886448328804686 2.1093105205131524 0.0
65 1 8.00754004628626 2.286000979804173 0.0 0.46608371101244156 1.0879103016540952 0.0
66 2 18.13406883958032 13.131637568109605 0.0 1.1781215118321373 4.387623217629356 0.0
67 1 16.00717559285422 16.77594758297506 0.0 -4.995316079688294 -0.5888656993706626 0.0
68 2 11.79403950531225 1.7133698826276682 0.0 -8.625814879742217 2.1023222178861523 0.0
69 2 11.366608319758242 4.758317273442823 0.0 -9.890155651811847 19.163654536430737 0.0
70 1 19.713663143945535 0.07025957011250887 0.0 11.382489644494367 -8.475145446587964 0.0
71 1 8.5309925766965 11.603561208437416 0.0 5.988110038135317 -6.378349150357938 0.0
72 1 3.3236365079011683 11.197410063105206 0.0 -6.757222964564714 7.367162754399419 0.0
73 1 0.16715091556858397 9.065868952228293 0.0 -12.846330540930342 -12.893854964721154 0.0
74 1 16.477161191061036 3.7320659510481486 0.0 15.933537235640351 14.69078800731663 0.0
75 2 4.333796979969733 6.640374936833785 0.0 -3.6241355216254765 -5.276693655287564 0.0
76 1 14.732116773617072 16.014889982820108 0.0 10.400380041896256 -12.446517964480691 0.0
77 1 2.261440808899682 16.509443774602254 0.0 3.789641711847822 -11.504321704225775 0.0
78 2 5.1273396996922695 15.502854822335092 0.0 -8.28209229566012 -3.3439958838029766 0.0
79 1 0.868648696467679 15.908526631716345 0.0 -0.8069507790643697 -0.6132858897695893 0.0
80 2 14.6512488255455 3.3244803370081595 0.0 -6.218882302768743 -2.806357134218 0.0
81 1 7.931054071707572 5.388659407828136 0.0 9.615115453720232 14.276670630957895 0.0
82 2 9.812867785467395 9.750202055672585 0.0 12.294670038607237 0.8000977265110012 0.0
83 1 10.517529018867839 10.231943543599485 0.0 6.038358846656874 -17.444318115780465 0.0
84 2 3.1581145251171323 6.779119000565986 0.0 6.9668707058678345 -6.818287107036817 0.0
85 1 5.046303888507115 5.173087742500219 0.0 -5.427723107023544 17.361629085221825 0.0
86 1 19.65789644347052 16.519862579580046 0.0 -6.984000360455081 4.842278384656758 0.0
87 1 1.3468620226492019 9.031387430641193 0.0 -13.125406515460636 -3.924165710991427 0.0
88 2 0.37057489020884465 4.916166557613926 0.0 -4.820382110771771 1.8922017211420277 0.0
89 1 5.195202685172441 17.189916199126404 0.0 10.034346658197173 3.2329754071838503 0.0
90 2 5.724142409185173 9.923203358013518 0.0 12.197167014988583 -2.127228285204566 0.0
91 2 9.438844813429563 16.432514663563556 0.0 2.5898099638754304 -7.2632431276666525 0.0
92 1 5.95224145955858 6.330807084587475 0.0 -13.57210579974419 15.705597111310247 0.0
93 1 15.096360447912181 15.570572662770193 0.0 -14.442714102209372 -8.460720051883323 0.0
94 1 0.09334319161191788 11.821832080010742 0.0 -5.041273910258557 9.584328358099294 0.0
95 2 12.345006581963524 3.287311812566452 0.0 5.6436131402832315 11.092959314136277 0.0
96 2 6.164837013686474 13.990641859726358 0.0 1.565501028154608 0.12808738947676923 0.0
97 1 7.935357448857051 13.021003577667539 0.0 0.1060516114571449 13.030762448782966 0.0
98 2 9.060038544780298 18.625880943660416 0.0 -9.822593995159835 -12.752170392374076 0.0
99 1 17.158883480928214 6.058000359143966 0.0 -10.41073941712874 -1.2277724175542346 0.0
100 1 1.3194309035403495 13.140855581964757 0.0 11.527930109873383 11.945223759960431 0.0
101 1 6.690073653358971 19.469818071066964 0.0 -3.832596091991561 -16.06812993368049 0.0
102 1 17.548942310928954 16.872812802828484 0.0 -1.6287081209866554 3.0677183325765847 0.0
103 1 7.159981301220923 18.811602347132684 0.0 -13.726222948785615 6.034066942379565 0.0
104 2 11.48210857807756 9.078396144627744 0.0 9.436006952926466 6.009601204618711 0.0
105 1 2.309116287639984 8.3699560057686 0.0 -9.214939644932072 11.86604337987782 0.0
106 1 8.70895247869505 14.385890696017468 0.0 -0.8329777599738051 -6.389414307341122 0.0
107 1 5.861651360360075 19.604935617542633 0.0 21.103162079223292 5.250398558734301 0.0
108 2 2.339047981282484 15.485469097945934 0.0 1.8908210957167018 -1.561276005481021 0.0
109 1 7.9668517069959055 1.3529866185101638 0.0 -3.7627503778024156 -3.3031422136779387 0.0
110 2 10.51351541099767 4.868686169343718 0.0 0.8806588741604555 -4.506187487749876 0.0
111 1 8.932901438535044 4.57517849595746 0.0 -8.636827384971069 -19.19234990188845 0.0
112 1 4.528483370331563 4.996779166587464 0.0 -7.115063186424383 -5.541442475424456 0.0
113 1 8.257694600147058 13.700080214765416 0.0 -10.443951020611776 -1.0283782934146957 0.0
114 1 1.0376435876787167 16.690396079150048 0.0 4.619466492700905 -5.5135328856670816 0.0
115 1 9.814193145079463 17.995914649772903 0.0 6.855991110940201 0.15140062153754122 0.0
116 2 3.648094037759332 0.34677869544444023 0.0 -2.7800767237154735 0.3445930868250123 0.0
117 2 18.1511852751903 10.710563079962329 0.0 4.6696509229721475 0.7711558461449592 0.0
118 1 8.096395048311285 14.845567660310664 0.0 -4.010383068592909 0.011946925502040136 0.0
119 1 5.373756974066558 13.242683789434981 0.0 -8.693159568256398 1.7298556209382727 0.0
120 2 7.617328847630218 16.577561673283977 0.0 7.453063273129593 0.10983195886173971 0.0
121 2 16.72287596740264 2.2285026792579834 0.0 -5.211909739206132 -3.1974286994206915 0.0
122 1 15.332125166465767 15.924372086513719 0.0 -6.333941151907819 -0.48440356872739154 0.0
123 2 8.659188999113782 0.21113342283293662 0.0 1.2172663031024715 -6.682564703612428 0.0
124 2 3.1841864567757003 7.987417994512865 0.0 -1.715061300216677 -1.5250126014249075 0.0
125 2 3.648259571047757 5.975423543179081 0.0 -7.07150570463633 2.120998804615967 0.0
126 2 6.745373020886471 4.797826146042304 0.0 -9.274631520504691 -0.4254477966839096 0.0
127 2 10.38859826769331 15.230485410927233 0.0 3.090218232621309 7.514395668916725 0.0
128 2 3.680852277903271 1.474069686962451 0.0 7.760219455482723 15.158748454576589 0.0
129 2 12.417366851272297 11.69276365152145 0.0 -0.9234709165322031 1.1910173976258207 0.0
130 1 14.649964105569877 11.129523145645344 0.0 -2.0205391342224357 -9.55160796968788 0.0
131 1 19.08991459351781 19.28274899538328 0.0 -15.378152304299961 -0.36245137710064945 0.0
132 1 5.69008955938138 17.075230294100567 0.0 5.723985491723176 8.182484259675581 0.0
133 2 11.692279185992938 19.27759130906071 0.0 5.03926971326945 9.568159294432629 0.0
134 2 7.30337641813913 14.378354734440615 0.0 -4.790865544481588 2.514327258124212 0.0
135 2 15.695485595822865 13.815056241537935 0.0 -9.203813830652566 8.431412577274058 0.0
136 1 17.97704029288431 5.697116944654867 0.0 -6.602916186873701 28.134220141329006 0.0
137 2 17.15848595143028 3.0252722638163854 0.0 -2.0807100678806374 0.41191836958751304 0.0
138 1 19.471926262398057 17.011334253102206 0.0 -2.566291458574303 2.472776058370297 0.0
139 1 18.234434734131444 13.99380016033366 0.0 -2.0340158693184565 -7.663325111500577 0.0
140 2 3.8547744706961318 9.826525107795321 0.0 7.9742380575750085 -2.846179795891206 0.0
141 2 4.348711197823939 12.426123916593632 0.0 5.104133220782495 3.0257722043784776 0.0
142 2 11.582592029901162 15.922019017738021 0.0 4.193142637148618 2.2113404455567145 0.0
143 1 0.5139941886684157 9.552164826901965 0.0 -11.37106263413772 -2.5854230093995434 0.0
144 1 13.319258250886879 16.602224413685015 0.0 3.08406163098045 -11.444712344282902 0.0
145 1 17.037632795902187 5.486339706267901 0.0 1.0179268565010242 -2.1639108725682266 0.0
146 2 12.470640790453025 9.949338020845982 0.0 10.298780522014921 5.469316532411672 0.0
147 2 15.491229785085842 3.472166324982629 0.0 3.5196212692440447 -6.418210782539212 0.0
148 2 8.181582731433524 4.568247816585197 0.0 1.3455480879274087 0.5378942808115231 0.0
149 2 11.824855609414836 14.548554665445671 0.0 -0.5790487236006168 1.8803565752618585 0.0
150 2 17.504220284717693 14.209759094950178 0.0 -5.261435283456856 11.030958120956939 0.0
151 2 4.187454707252398 2.3985671271069404 0.0 9.593573307066789 0.0007247081766544752 0.0
152 1 8.988838249852456 6.004059540373837 0.0 0.1951196856256511 -6.117928829118926 0.0
153 2 7.276779333802341 9.16613109491584 0.0 0.36787784061553486 -2.6279349215306484 0.0
154 2 18.40536739189099 9.870718256779458 0.0 -5.1854634408749645 2.746939474125433 0.0
155 1 5.293945033210009 12.34166559505743 0.0 6.9913513607307864 6.693816793296684 0.0
156 1 9.518969414297638 4.757571918290199 0.0 1.343333122668903 5.468519926727436 0.0
157 2 7.34362011599196 3.5151165309415577 0.0 4.0594766124378925 -2.9595533072291182 0.0
158 2 11.392396663783256 3.9219036887486927 0.0 0.32229550160687725 -11.215143352547678 0.0
159 1 11.92545781563249 17.071806014932317 0.0 -1.821129218138808 -10.698629394939282 0.0
160 1 11.570264883435758 0.6004409160264216 0.0 -1.3197244486488868 -8.113633621658128 0.0
161 2 5.057254745419618 3.2026347431745483 0.0 -3.155373626790963 -9.635185319362474 0.0
162 1 12.074918410646116 0.9084298182734498 0.0 3.5390659434244833 -6.58174692780258 0.0
163 2 10.227850646219201 11.732023654894466 0.0 0.09049969351448175 -4.654184339308727 0.0
164 1 9.109928331004067 9.273871819482629 0.0 -2.5811757719625152 0.23363849451495675 0.0
165 2 0.3892359049251532 17.452058825913785 0.0 -4.619380377106665 7.347745997519457 0.0
166 1 6.867617519648003 18.17185507862832 0.0 -1.7657876202141651 5.947194561933523 0.0
167 2 16.17964410975488 5.940602222822203 0.0 0.3344165755752397 3.5746247243893268 0.0
168 1 14.689070347198472 15.093806764427418 0.0 4.774894740443896 -11.434895582724545 0.0
169 1 4.1652293428873035 3.630304163610302 0.0 11.163217818723162 16.799510533446504 0.0
170 1 2.456299476590746 0.4665847811123822 0.0 -13.878581773787124 4.320415153382213 0.0
171 1 9.81641448655405 1.3329781920333148 0.0 22.440104087893666 9.966753277478087 0.0
172 1 16.765834870330806 12.964831190939291 0.0 -9.566211493169403 -6.333567088680664 0.0
173 2 18.530858584481766 16.968481851222254 0.0 16.1191620087728 -3.706819714587849 0.0
174 1 13.161885591273633 9.315648249371504 0.0 5.374546670095891 4.569586018606397 0.0
175 2 13.703167258262033 14.119533903023697 0.0 1.8624289929296145 4.828028280933073 0.0
176 2 3.692296566796525 8.862857419379054 0.0 1.556636424098656 5.712712507491872 0.0
177 1 1.5696690529388537 16.33963518258243 0.0 -1.3070492908644957 5.15654743914519 0.0
178 1 1.2006644361218566 1.6526920435023846 0.0 -4.871012436554799 5.917073339055088 0.0
179 2 17.90619270957866 7.250916654402357 0.0 10.380366207036674 10.920604457630345 0.0
180 2 14.642610665510224 1.1608107939709764 0.0 14.970853439764017 -8.161089972444737 0.0
181 1 13.644395716026729 16.958655398405593 0.0 -1.780241190790726 -16.43902445599603 0.0
182 2 3.144532615689485 17.184687010783907 0.0 0.8180730071268679 1.4365358953435101 0.0
183 1 4.175524610195835 7.592212097523236 0.0 -4.065221073583231 -9.160608244827852 0.0
184 1 12.604214619129461 12.994843242860318 0.0 2.1652003017590657 0.27685436096506055 0.0
185 1 16.056626563882613 1.6617343815384327 0.0 14.069479634288383 10.821202908611212 0.0
186 1 19.592885766122762 2.7713314665436504 0.0 -16.76227347124521 -14.042786882498719 0.0
187 1 7.817731015988432 12.282136909654035 0.0 -7.589070133099528 -18.83982496849187 0.0
188 1 19.198547931898023 7.940403934640793 0.0 7.227746797094843 -7.970161104278509 0.0
189 2 9.37354322057827 2.050521393931329 0.0 6.821138185475212 4.55221865316049 0.0
190 1 19.242211217069162 7.353572585476844 0.0 -3.290591102617746 6.501682843309231 0.0
191 2 5.863157859241546 4.62881783726745 0.0 8.848344611150182 -8.270042593809146 0.0
192 2 15.83310561703138 10.247521778525485 0.0 5.498847574610654 12.442232708905484 0.0
193 1 13.834527657658269 4.073381092904821 0.0 -9.78113483672828 10.582956228532987 0.0
194 1 0.6025230008625708 8.617554529139708 0.0 -14.946751477478902 8.698573459303969 0.0
195 2 8.70015428864652 8.13514586664247 0.0 2.958468892591614 -2.7148202111288557 0.0
196 1 13.841220318894827 11.982782072022143 0.0 -8.515378241231748 -2.507723117082719 0.0
197 1 18.731386889578175 8.81208163371803 0.0 -6.581419188504981 8.782685023516626 0.0
198 2 14.051065659950934 13.198035341337576 0.0 6.044872516757876 -6.579159830721502 0.0
199 2 11.283796490763589 2.5595761018117478 0.0 6.561154385637407 -3.348277962587939 0.0
200 1 15.586976089132905 14.623707456550823 0.0 2.4752100203292806 -10.439063281024536 0.0
201 2 13.14937907846456 11.25927397048415 0.0 3.6650204366765182 -3.4060256734056837 0.0
202 2 8.864039571540927 13.144436922991979 0.0 -2.1088284667523216 -7.145464940477549 0.0
203 2 14.931600980137329 17.59550477657385 0.0 7.021963699047457 -9.636001355511688 0.0
204 1 10.63354454049818 17.689462693418307 0.0 18.880172252353034 -1.1087393200261608 0.0
205 2 11.543685381524067 12.733967286327058 0.0 -0.3690431816770223 9.104082212357921 0.0
206 1 15.848200432772838 4.592594712391058 0.0 6.86358967828494 2.22648414708904 0.0
207 1 5.694830904342197 16.49602974994315 0.0 5.870616995955751 2.7373301526518854 0.0
208 2 17.011742574948677 11.042160861518651 0.0 6.9114045244934035 7.447757070314488 0.0
209 1 18.721381530435742 7.462628704970457 0.0 -2.697050414571228 -1.8797698615238518 0.0
210 1 8.07088933551868 6.107216483420068 0.0 -6.726573093818819 5.684512597192709 0.0
211 1 9.285117752394541 8.761887822416773 0.0 14.833962500801347 -2.990648036873482 0.0
212 1 7.44698421328941 2.7569558894415422 0.0 -4.229236706230815 -4.446930631990685 0.0
213 2 6.619529744637732 6.919322828128539 0.0 -4.227189092032246 3.121106112536023 0.0
214 1 7.655153227592748 15.290383375062808 0.0 11.850995390677243 0.12418839075428015 0.0
215 1 1.0378580679001164 2.395733660233957 0.0 -1.837948464145428 2.230049896269858 0.0
216 1 16.224955307798453 15.828895607901988 0.0 0.790965306615205 7.207065195697792 0.0
217 1 16.804576518401728 18.587501512056253 0.0 2.6184152913856256 4.030306114204357 0.0
218 1 19.211315482120657 16.18743114866282 0.0 -18.82470661322332 -15.899898506107949 0.0
219 1 7.634935161560903 19.288956263215915 0.0 -1.904351065646419 3.5625629257475713 0.0
220 1 18.16021572002319 18.559139828383337 0.0 5.764451706748637 -7.950257683347008 0.0
221 2 17.392787199183164 19.430679078765102 0.0 4.229381167775864 -2.387655033000821 0.0
222 2 8.529714257269495 16.23324913182116 0.0 2.0576232795891825 0.1536727575697609 0.0
223 1 13.027724187172556 7.752739977220767 0.0 -14.497378315320232 7.304151953372061 0.0
224 1 10.937971548657192 10.020550245241619 0.0 -1.2348252608938466 -8.189666331301327 0.0
225 1 16.097521311113873 17.209120058785174 0.0 -10.498041561275949 4.3505464833582135 0.0
226 1 15.53332521485788 19.48237393881974 0.0 -4.683990961711129 7.143630005928839 0.0
227 1 9.006741660121762 9.698992112582225 0.0 16.601389738609615 -11.559773338428814 0.0
228 1 9.152238982845722 12.36120925328716 0.0 -8.11701340618674 10.330549420325092 0.0
229 2 15.844722877081928 18.116690417911087 0.0 3.4955101641072397 7.0822156378613785 0.0
230 1 6.979128895563352 10.044295799877364 0.0 -4.283166940993126 0.11088576587852894 0.0
231 1 10.913278741411743 7.071428281251744 0.0 -1.7504423633293673 3.655363659033909 0.0
232 2 17.396684756244603 9.874992275040974 0.0 10.142503162237164 7.032311795740578 0.0
233 2 5.711336562763393 1.4199666531956496 0.0 2.489857338798685 -6.39369854452835 0.0
234 1 11.074628474294363 13.735993563270425 0.0 -1.1588349902858084 3.1555673552368564 0.0
235 1 0.924243676767683 18.118399843836002 0.0 7.338662463679111 -5.112420413521144 0.0
236 1 10.965512035644775 12.268667137236191 0.0 -16.41968990580165 -7.063409278463887 0.0
237 2 6.109804612053157 2.4761922164679926 0.0 2.036792104203444 2.760720184545175 0.0
238 2 8.165955500880813 8.961332905566467 0.0 -3.751354034344919 1.0317593467301023 0.0
239 1 14.201092150437203 16.482852820997632 0.0 -1.2112941033466726 -1.0356769091678724 0.0
240 1 15.679972164452055 5.042832265800968 0.0 5.16041978758718 4.838623661271065 0.0
241 1 4.3957816869651145 13.960776730503643 0.0 8.375034101357002 -2.0095040332878065 0.0
242 2 9.88601138779951 8.188231576690287 0.0 -8.585839570207321 -7.122065858117517 0.0
243 1 12.494301946276483 7.275428967973835 0.0 -2.2323761540903386 -9.159859794450892 0.0
244 2 17.86228383780359 8.486968225598277 0.0 2.408948452715378 4.622897353812175 0.0
245 2 2.90946371397745 2.0724428976207445 0.0 -2.9397628435681553 -12.219537010735326 0.0
246 2 10.084809849062271 13.156235085695046 0.0 -6.023036424651091 -10.307223880505873 0.0
247 1 15.655891105674819 15.25594911686863 0.0 1.8992297284502315 -4.045474614539646 0.0
248 2 15.040656101431303 2.22708884579326 0.0 8.166643585844852 -0.7437757006140732 0.0
249 2 12.304422580252917 5.0295883786830275 0.0 -18.11595469985103 -7.506935238166711 0.0
250 2 15.483303238957536 0.8376879235694422 0.0 2.996263531060464 -0.6687213330900936 0.0
251 1 18.140886934934336 14.951123636129356 0.0 3.7378679863679305 -1.7749455613181953 0.0
252 2 19.08199320846432 11.76917130136126 0.0 -5.721176231329394 -1.574602059675206 0.0
253 1 9.394210772089826 3.9410879688132616 0.0 4.558955200630219 1.4651582142771444 0.0
254 1 2.619434033059585 3.7043065571883864 0.0 12.759494652413697 4.530979738989074 0.0
255 1 4.945464585566439 2.0467023193245537 0.0 -0.7632026554487084 0.6703074656008515 0.0
256 2 3.769641994484054 16.526747561619988 0.0 -3.6144748767289254 -6.001652042209957 0.0
257 1 3.418036833453453 17.908448100460728 0.0 4.396030721920711 -18.567597453795255 0.0
258 2 13.69231550689657 10.630021955444269 0.0 -0.41182925258828124 -0.9821485122860321 0.0
259 2 19.13735808967429 15.144128789432537 0.0 -6.407423394994787 -8.542929784665166 0.0
260 2 10.08270198163817 0.07701207377730723 0.0 4.932814431484857 3.0239693713046223 0.0
261 2 5.667530166480323 7.554649637672896 0.0 1.2737484213971013 -3.5715894808371242 0.0
262 1 5.210692822631318 16.473756332918864 0.0 13.845957604745289 2.650070133005522 0.0
263 2 5.231905087631765 6.883118690998758 0.0 -7.904901821239673 4.5107148797067795 0.0
264 2 18.64353289880688 5.289901100480057 0.0 7.440441359897104 -2.160294790803486 0.0
265 1 1.5002712237920126 15.569709986093986 0.0 -7.380826509295637 -1.3117188428964655 0.0
266 2 16.207966498725103 7.339387011917803 0.0 2.506230644028528 -4.0561341038730765 0.0
267 2 19.186782094615644 10.707766771084142 0.0 -3.144520358935925 -0.552240175095025 0.0
268 1 9.656356639060219 6.268692911474816 0.0 -3.737143034261261 5.856782558096019 0.0
269 2 6.975131377894174 11.720108873454247 0.0 -10.208239544232967 6.838618649700224 0.0
270 2 0.621664745693495 14.829656248054876 0.0 5.3700145599012306 -3.628753303331507 0.0
271 2 5.0715547580517315 11.511660666435905 0.0 -1.7373064618911445 -4.607323149730275 0.0
272 1 4.645960186281305 8.157870682237446 0.0 -1.4923370318533338 -5.3280361444595155 0.0
273 2 19.756362323869364 13.966720997053274 0.0 -13.86980089892196 -7.521030207759709 0.0
274 2 3.5374252565148456 18.838623194447496 0.0 6.459809334490563 -1.4071912635093244 0.0
275 1 9.788266842131307 17.413382112717272 0.0 13.852948249551112 4.9038241632539386 0.0
276 1 11.55296127679726 17.443382067176604 0.0 -10.1301267120195 2.7735232829493555 0.0
277 1 7.558637810102952 5.978757302646088 0.0 3.3967305216134847 -4.591121195568794 0.0
278 2 12.936532455200133 3.9478952042151243 0.0 6.117640890276287 -8.939914694877949 0.0
279 1 3.8157111002361805 7.381346053328979 0.0 4.286959410695728 -3.5852251382095504 0.0
280 2 14.086151998491273 2.2527572326289604 0.0 2.1799050039493393 3.6907526632806693 0.0
281 2 14.84001079341057 12.424102103417074 0.0 -6.778200143660894 -4.1846969580884625 0.0
282 1 10.143230211893247 2.489621738371328 0.0 7.056030824918062 4.480426703121625 0.0
283 2 7.536478170739983 7.465000286789535 0.0 -13.472860767790616 -2.2529905908618053 0.0
284 2 10.655961399943408 0.8095942827991848 0.0 1.2226654773124614 -4.737141129311926 0.0
285 2 15.736738848649484 12.83680348963862 0.0 2.2377555938601135 -0.6917290050962832 0.0
286 2 2.6989908538636325 5.27202227940141 0.0 -8.610275872049456 8.719845005992871 0.0
287 1 19.012608760820083 8.374291128311125 0.0 -1.3793396747546383 -0.7976714659112215 0.0
288 1 9.60542100341474 15.578221429888133 0.0 -10.179883765558975 6.337811212876152 0.0
289 1 3.143296401671152 3.2850761468806837 0.0 9.02142292493138 -2.0538104399200074 0.0
290 1 12.775736682012237 13.782127077698302 0.0 9.662842740367553 -2.9777252366526676 0.0
291 1 4.65380410267646 16.521355205164816 0.0 8.905395990007182 -8.017532060854979 0.0
292 2 4.14775025818775 15.506090901279451 0.0 -11.620728125829594 -0.8013227377228477 0.0
293 1 13.985936241872988 8.76776407115812 0.0 6.219550880235934 8.93187196822405 0.0
294 1 2.91034151040106 10.020055378683468 0.0 16.845406490835398 6.891715921613448 0.0
295 1 16.64531461327237 11.977427786592076 0.0 -9.923217977773035 -5.611502363758074 0.0
296 1 0.5827944080151147 11.836862132270497 0.0 -7.688247962029348 3.8958377567813716 0.0
297 1 7.537891024676426 13.49794536010037 0.0 -28.252433803668946 4.815050865874264 0.0
298 1 0.3647161048679064 18.49522137932152 0.0 3.444602149428977 7.3677865915129965 0.0
299 2 12.697807589004078 15.20588841006605 0.0 0.7076028633071763 5.829717375541271 0.0
300 2 3.283865519116643 15.424088257879502 0.0 2.1511999412698697 -9.67229496479696 0.0
301 2 5.280679667470956 14.519942724908452 0.0 -6.903025445992084 -5.169434531925611 0.0
302 2 1.3269951905028803 18.865723295167097 0.0 0.832969086179973 3.372866145767755 0.0
303 2 6.693023089112104 8.106330100264975 0.0 1.3749018428312136 -0.7763419548923404 0.0
304 2 5.0330915611083205 18.37802093370502 0.0 8.491382357402697 -5.493404073988789 0.0
305 2 16.543971027828267 9.70291632376373 0.0 1.1983249512168395 -3.538394246098708 0.0
306 2 13.929206857251298 18.462368831569215 0.0 2.022925049737366 -7.243952710592203 0.0
307 2 13.927679117623995 0.6661494275433391 0.0 -3.6145342020633286 -0.039975917171429114 0.0
308 1 7.204263965246658 17.63866039292852 0.0 -2.156780374798374 -8.188025899463671 0.0
309 2 17.940984508220076 1.8671868290020937 0.0 -2.64002561456932 1.807991254090041 0.0
310 1 9.85290899230008 5.206354459173054 0.0 5.295866931530386 7.7365708785110225 0.0
311 2 2.4142481810974465 11.512829227330142 0.0 10.042890565527227 3.512507222464384 0.0
312 1 19.289066261613154 9.00405376604765 0.0 4.838939762735397 -16.243205169048206 0.0
313 1 2.0244210661213833 0.8960037641950389 0.0 8.443591872094306 -0.5764870115612034 0.0
314 2 19.611337913487873 6.577007644994179 0.0 -9.99616254220639 1.359543571558604 0.0
315 2 18.494395845100243 3.94109249907964 0.0 0.2568300804073736 -11.257464968796217 0.0
316 1 14.510411487982829 11.769577881760716 0.0 3.459960530659054 -3.4832281515174786 0.0
317 2 7.718093597788334 11.07472438668226 0.0 2.0466174764900895 -1.0605809016540175 0.0
318 2 2.2242578364033707 7.0907059789338165 0.0 -1.3135830072426486 -6.166473741748444 0.0
319 1 5.645500513535983 18.890304759612192 0.0 0.8092733221936151 1.299369549872783 0.0
320 2 6.211004963302159 5.503025313164605 0.0 -6.257689419691372 4.015056953986927 0.0
321 1 15.440651217612325 11.252144494989183 0.0 -7.115084227335342 -0.1766895353788253 0.0
322 1 14.449721898503782 8.974728020184525 0.0 -6.337698164205462 -2.760330550066526 0.0
323 1 11.269790780161646 18.16585406041583 0.0 1.2981867588012885 2.2554952959865253 0.0
324 2 15.667492026546306 11.999141714977936 0.0 1.8971975745624527 -3.0881344305494784 0.0
325 1 3.4925448815339672 5.062644664824118 0.0 13.262909147255238 -11.684579966893335 0.0
326 1 15.213723002093428 4.25037211725733 0.0 -4.287510947153909 -19.726677167240602 0.0
327 2 6.653402741350598 1.707472509285414 0.0 -5.551555494157802 2.574678402272446 0.0
328 1 7.126904202947665 12.691474839173239 0.0 -3.5826131743295666 2.4981566392889727 0.0
329 1 10.95570070326326 11.004213201545292 0.0 -0.10066747846345679 1.7995008517856037 0.0
330 2 14.316035786414401 7.4325763540448975 0.0 -11.242711851677715 1.5092824539161438 0.0
331 2 12.70544098584904 1.2861344906937064 0.0 8.305410018361695 1.8980876598367347 0.0
332 2 0.8024739985131218 5.992001743326833 0.0 0.4198543982472819 0.5846341791132713 0.0
333 1 12.96264127823949 6.048069723603003 0.0 -21.50866401007209 -2.5310230708280876 0.0
334 1 6.231729094043336 18.97747505915642 0.0 12.24349029008023 -11.622553550522618 0.0
335 1 1.5595207547821364 9.761053393277301 0.0 -0.9225778115521659 4.037341186582123 0.0
336 1 17.78671839687202 17.54784941249955 0.0 4.244445972690239 14.022492136524185 0.0