ITEM: TIMESTEP
0
ITEM: NUMBER OF ATOMS
400
ITEM: BOX BOUNDS xy xz yz pp pp pp
0.0 19.7609 0.0
0.0 19.7609 0.0
0.0 10.0 0.0
ITEM: ATOMS id type x y z vx vy vz
1 1 18.271771734911937 1.787918910730559 0.0 5.6739720140351135 5.8314367357406764 0.0
2 2 15.599547308823341 17.881432755213865 0.0 -4.4344943944796835 2.0617903940719122 0.0
3 1 15.38839410572153 11.096695689858363 0.0 16.1327483318301 -5.172235099958631 0.0
4 1 0.31559447406137975 0.8296962058623129 0.0 -1.649355373983818 3.596603867962006 0.0
5 1 19.715340214969395 0.1705146683620409 0.0 -0.6296701475402767 8.52846852386541 0.0
6 2 19.468836052618066 17.22505931191424 0.0 2.0947037962589268 7.285597842911208 0.0
7 2 11.257116905286738 5.658977593398036 0.0 -2.381383139583741 -9.218081833735365 0.0
8 1 12.767307248341929 13.271433215921098 0.0 -8.398466628172407 -7.515851552966848 0.0
9 2 2.6864744387710515 10.868823718969832 0.0 -2.6577283929720967 -1.7932911102988822 0.0
10 1 17.88858933029653 8.231118274052887 0.0 -14.869544920984207 3.563375497751422 0.0
11 2 7.006598858114589 9.308572007776288 0.0 -1.981405871606102 1.3849521808210192 0.0
12 1 15.632702652923816 3.6389364487444755 0.0 -7.886644199716633 -0.4872545499763292 0.0
13 2 4.2897789777501245 18.983616487871693 0.0 1.674751044068249 3.2905310277623427 0.0
14 2 8.138058836088156 18.199114120605717 0.0 15.681258704519557 -7.8065267038542 0.0
15 2 19.19063142966026 16.46395703293877 0.0 2.4331957438322993 9.05423747294106 0.0
16 1 3.520390721229133 5.370739240160817 0.0 3.6295565274552133 5.926509019999743 0.0
17 1 13.477495815766936 17.179281346939753 0.0 7.473081108646979 2.4085706896071 0.0
18 2 4.266515844831794 9.334812662967265 0.0 4.890243287625709 -2.7269902133906587 0.0
19 1 18.41139187799589 15.006030783109326 0.0 -0.8211969967039625 -9.484796464431636 0.0
20 1 1.6632382564745698 4.099697497181729 0.0 2.057510091194574 -14.018300105032711 0.0
21 1 2.008563747535823 5.476167092321667 0.0 -20.043948866643856 -12.031457475638025 0.0
22 2 14.721850653493847 10.593326661845497 0.0 -15.571244974621145 -5.7790375971059404 0.0
23 1 19.071253939495737 5.927101969546599 0.0 -13.714749736219895 -1.2763912692359722 0.0
24 1 4.213872370742989 5.21370019584948 0.0 4.1486341969974365 -8.214228605549055 0.0
25 1 5.126958735275739 18.851410438719906 0.0 2.591419762253995 2.3928324635169993 0.0
26 1 11.110688503724782 15.064216549895917 0.0 11.769740097173509 11.702514233687454 0.0
27 1 5.962043480756171 16.34871322369875 0.0 -5.118066459323004 4.1370973462192415 0.0
28 1 14.022171285603461 10.52516230675707 0.0 -5.605785875999115 0.2055796223972076 0.0
29 2 18.67353422261206 18.924058175441438 0.0 -15.44919080886257 -0.7135375485218952 0.0
30 1 8.914262364045621 18.928333783935148 0.0 6.726364900754807 -3.8647420672700967 0.0
31 1 15.537914068124493 10.476131044994423 0.0 -22.29363102826163 2.469685727472548 0.0
32 2 2.4619441681973706 18.74274089523766 0.0 3.6635440535778727 -6.457295438806484 0.0
33 1 2.061412112719712 12.178379790859152 0.0 6.888833024809861 -1.981464457894782 0.0
34 1 14.824702766878245 6.2388842875636445 0.0 -0.7658735246418171 -15.626042803191215 0.0
35 1 7.1797534745064295 5.021133145382819 0.0 7.385874524990671 -0.19989232071081958 0.0
36 2 13.500881220785441 9.293179128245363 0.0 -1.9341110501908751 3.6743596142722095 0.0
37 1 6.567925070713079 16.375065372292443 0.0 16.630813396187676 5.651806042908836 0.0
38 2 9.297642152162837 12.215172828929129 0.0 -8.194709082442062 -3.3070701660529367 0.0
39 2 4.779733041243542 13.153467064623786 0.0 -4.604660678942617 9.714459406783842 0.0
40 1 12.230713704096384 5.879611541000671 0.0 -12.841339679220301 2.364308759617726 0.0
41 2 7.402022083447194 0.5939362526906236 0.0 7.471986814358789 -1.4387625592223277 0.0
42 1 16.035446190241196 11.09523718358748 0.0 0.30436163093773577 -13.686545925796217 0.0
43 1 12.82936691098026 5.669246882224953 0.0 -4.416095483157508 6.52276193101296 0.0
44 2 8.701208902722293 6.924162741466879 0.0 7.150605909150616 -13.75897377500168 0.0
45 1 6.458687845404675 15.696798762194552 0.0 -1.7543286136922773 2.3010748593713926 0.0
46 1 2.759533666824127 6.442650554751961 0.0 -3.2052014269035425 -7.460127832661559 0.0
47 2 17.23305284339713 16.955178029410934 0.0 -1.909511426204109 2.073795413180222 0.0
48 2 11.698943552096091 2.2756078723051387 0.0 3.4796627726116927 9.291949788014962 0.0
49 1 4.4563148883195085 14.86867507294094 0.0 9.103869696468038 19.740248657967072 0.0
50 2 18.42755264038369 6.374988194749713 0.0 -4.785124639312586 -5.0412521794899146 0.0
51 1 17.900713789487106 16.27863575959534 0.0 -0.01468265880636296 -2.6544927414928914 0.0
52 2 14.232802064201802 13.149228399135614 0.0 3.049072005033999 0.9910528782190522 0.0
53 2 13.971660817259169 7.614880442995463 0.0 -3.843174947648822 -1.1189276489056703 0.0
54 1 12.428948331355944 10.065347035336252 0.0 3.6203361169206953 -6.4905324954262955 0.0
55 1 19.491336137175953 15.488737098776125 0.0 4.148936983106444 -13.573028356325192 0.0
56 1 12.988242986058678 15.371001341448956 0.0 2.8408325406314225 4.288196225049349 0.0
57 1 14.217036478791346 8.83078600702195 0.0 -4.505425153980468 -10.927925517684615 0.0
58 2 5.71800164573868 12.92420166295811 0.0 -5.776360431523988 -2.5676676416091406 0.0
59 2 11.234216479753785 0.4571634094382224 0.0 -11.726956527541805 9.254137315188562 0.0
60 1 1.4825490714929517 12.25901772548917 0.0 7.597614089563797 8.727299205714989 0.0
61 2 17.74115405696814 12.726814776127622 0.0 1.109126734889943 -1.4240837984505041 0.0
62 1 3.573262623751358 6.476656280800191 0.0 -8.7774327302454 5.1915663772992 0.0
63 1 18.4207133825039 5.173347147118458 0.0 -1.2803603845150369 21.381972451011226 0.0
64 2 11.419496995162012 9.27703751440416 0.0 0.33559665729384913 1.195383755188401 0.0
65 1 3.562877470439196 14.512265299780132 0.0 7.718037355351202 -3.4944039576288657 0.0
66 2 12.717182785656828 12.507310758245865 0.0 -7.729832470516471 7.309964702206196 0.0
67 1 16.742422438932042 15.30149688791638 0.0 -7.816553003579113 0.8633684254012606 0.0
68 2 6.553919773003237 4.489209725393103 0.0 3.655271409794089 0.06785813677328378 0.0
69 2 16.034581733584076 5.332212975687365 0.0 8.00063983102419 4.71513217553209 0.0
70 1 3.0667985956283528 13.730319596882993 0.0 4.361679986506516 -1.3722996873933222 0.0
71 1 5.796351543197241 3.7872360654924955 0.0 9.383895530907441 -24.552275413034515 0.0
72 1 19.342277135931432 3.365840039572256 0.0 5.048880578235503 -5.900291015582501 0.0
73 1 11.996666699783749 14.160493318913906 0.0 -3.3414050438482112 -18.352576873612797 0.0
74 1 0.07450179050478237 15.06725476986636 0.0 -2.6811386022791197 4.7295596847706465 0.0
75 2 6.053764191986662 17.305459571690438 0.0 -6.913552556719331 -2.0934713910798495 0.0
76 1 6.5653479033676305 0.8559171483404762 0.0 -9.795284978718566 18.27416871385769 0.0
77 1 8.726353778777453 11.049902313422574 0.0 9.326932818637243 10.233934695917329 0.0
78 2 13.15953216773216 1.0906538711242257 0.0 -0.07319963999272103 -16.471226261352275 0.0
79 1 11.193360475520862 13.014356003739335 0.0 1.5966764820710546 -5.782744961823066 0.0
80 2 17.826046934867158 17.65850382593343 0.0 0.7628197045648066 4.035251624992142 0.0
81 1 18.57445285973129 12.396481109454292 0.0 -2.609862101536731 -19.45868053930099 0.0
82 2 10.7878551337231 1.5852941908744405 0.0 3.0911860388533343 3.4108314395603956 0.0
83 1 15.289566099946638 4.924184054265637 0.0 0.227466805168971 0.6563334639187591 0.0
84 2 13.2360604207993 11.436516563814333 0.0 2.0036689685684745 -8.670047581489445 0.0
85 1 14.13729553523896 16.27703063991214 0.0 0.2936509483761246 -7.117943298391224 0.0
86 1 4.58362920023746 2.0166739130467075 0.0 9.107370968609114 -7.461315742824628 0.0
87 1 4.1553179592533915 7.724904897033857 0.0 -10.587268181637418 8.57908998626507 0.0
88 2 17.458949692077503 10.234121688658771 0.0 -3.9693274525849285 -2.5475313506193014 0.0
89 1 15.235671687760188 9.035719377846108 0.0 14.4549834007264 0.6416267332441589 0.0
90 2 12.044342901427429 3.5310478420312745 0.0 11.478495773017375 -6.537334423506232 0.0
91 2 16.191442129266527 6.509650680575563 0.0 -0.41205882480429845 -12.217270894358554 0.0
92 1 3.0675757932410335 2.800463281068294 0.0 4.8564761093930064 -8.966619388681783 0.0
93 1 15.137077460115732 0.8824495386052001 0.0 1.6806936413618838 15.712919918116844 0.0
94 1 1.8827330333395573 10.889505084313349 0.0 -1.539488562089913 27.57314380389198 0.0
95 2 17.73787135843942 3.4546206549982075 0.0 -2.480597510833075 -3.9487722064410034 0.0
96 2 9.361621506161242 1.609105250515058 0.0 -5.141499745083202 -9.664422201705078 0.0
97 1 13.549239906655869 1.9295211136903538 0.0 15.051699136171974 4.25234473711181 0.0
98 2 2.055688084221655 16.06031897055887 0.0 -4.221355492771586 1.7462416676114196 0.0
99 1 13.613252565867272 14.861202018586578 0.0 11.438820214990173 -3.9647844368000813 0.0
100 1 18.160779056616803 13.563259103794023 0.0 -4.006810372323724 5.3231792984473785 0.0
101 1 12.773863161643762 10.579625470366196 0.0 -6.515132049489537 9.229857289358305 0.0
102 1 15.5653009917468 2.7656933905988157 0.0 -7.096280594980188 14.224071529132365 0.0
103 1 3.7857780063207103 5.7862377229273 0.0 -13.935423389459475 -7.288460844860623 0.0
104 2 8.77413491189199 14.534378518002793 0.0 3.0921397757786893 5.030940818472185 0.0
105 1 15.412200389380908 6.213752374310415 0.0 10.366084422083414 -6.647727186723233 0.0
106 1 7.791335373888363 7.022156766926283 0.0 15.731184281138951 29.046590551991418 0.0
107 1 0.24771626059374147 5.595191005750538 0.0 16.626934165801696 -22.620769461718343 0.0
108 2 3.609577273861275 12.711938183096269 0.0 -1.0906734101773994 -7.739067001223224 0.0
109 1 12.963945853694314 18.22271746455561 0.0 5.2297821798516475 7.376477433440798 0.0
110 2 12.257879626362104 11.497407967948716 0.0 6.354075426756807 -5.617311120999065 0.0
111 1 17.019233304743434 7.96492574391463 0.0 12.712288996515104 -3.7958059779415194 0.0
112 1 9.89937300988798 2.2090571942698487 0.0 15.578213216326462 3.480730575789436 0.0
113 1 3.428364301133646 17.910001307939797 0.0 2.4127838816732132 5.052122542575664 0.0
114 1 16.383716651426887 0.3033986977228597 0.0 -3.157094013075998 7.405666679303189 0.0
115 1 5.471415440988555 2.109031902458615 0.0 -9.606251502957805 -11.581726715713865 0.0
116 2 14.489195008159752 16.96627664993895 0.0 2.263018160780163 1.8067065707064172 0.0
117 2 7.777578909268494 14.770056796013353 0.0 -4.549614597229499 -0.9137782885151655 0.0
118 1 11.501201405000593 4.926022916461633 0.0 -1.430224620811845 -5.351043146816371 0.0
119 1 15.332183848664302 0.37411503923441863 0.0 -14.961009843520262 9.767758306821937 0.0
120 2 16.752238514009928 13.406682490470141 0.0 5.692514258201309 0.44551045254089294 0.0
121 2 10.599210970115427 2.7741667457816814 0.0 6.717829963129884 2.1125154684091174 0.0
122 1 2.230651276693345 11.458256302950533 0.0 0.03098132738611783 -13.797578164110602 0.0
123 2 10.727572454477144 3.7233209947376635 0.0 -7.9373324967663965 12.451203655817796 0.0
124 2 4.851252076393351 11.332259629300216 0.0 -6.857822900229829 1.7262312146305663 0.0
125 2 6.896423291707954 10.716695713548633 0.0 -2.3235031035365266 4.390407382091223 0.0
126 2 4.230578009913439 15.74098278865362 0.0 -8.779170441788493 -3.5835190612787233 0.0
127 2 9.952468856337513 5.838367736230447 0.0 0.3680873817260271 -4.473588835020151 0.0
128 2 13.413313752124015 4.701948011955459 0.0 0.40951701179625866 -4.454855425914173 0.0
129 2 2.343986576082646 13.251747292699404 0.0 -5.912230212321371 -0.6013683285348351 0.0
130 1 4.136737375376004 17.166981408161675 0.0 3.55857938300332 5.22255012079745 0.0
131 1 18.500898506882645 8.375647099944212 0.0 5.176294434091717 -12.738377291325559 0.0
132 1 17.321332300290955 7.355288222735602 0.0 6.603624946462156 -5.759565190107546 0.0
133 2 3.04065785384317 8.992029520700585 0.0 -11.633669055996418 1.7348078106463523 0.0
134 2 2.6592386732708526 16.970850207150104 0.0 -3.2877715482481342 6.0026116678299 0.0
135 2 8.732801395990952 13.128440891318812 0.0 1.054449854141975 -5.18067270195424 0.0
136 1 5.117332524280634 16.011377359142784 0.0 -15.62620179557854 -5.418326164319244 0.0
137 2 13.690980574728833 3.576291241953069 0.0 4.267624833291145 -11.105015994592824 0.0
138 1 15.337653671043745 16.47599562742408 0.0 6.741393683897227 5.8765051371899 0.0
139 1 6.549796330778584 2.138516909460423 0.0 6.689517656801373 -2.5771867495057443 0.0
140 2 12.20763263031331 17.917961184883907 0.0 3.914821113929262 -4.212095058192587 0.0
141 2 1.5272702262190314 14.00337563068167 0.0 -8.824165478426119 -13.407615707514783 0.0
142 2 11.482905037097138 19.263132960657686 0.0 -4.196261185042751 -9.693074697804683 0.0
143 1 18.51275337557587 16.084783658233448 0.0 3.9611791844700672 -5.229374176102812 0.0
144 1 13.417711682630001 10.725474908834263 0.0 -22.582338253424584 -16.787978091463756 0.0
145 1 0.43257786407189186 2.3161249741532886 0.0 2.456953338366235 -6.704130917712072 0.0
146 2 13.819004810534532 13.939370878097431 0.0 2.1959604615192796 8.13372397099073 0.0
147 2 17.847832312754814 9.228413535062373 0.0 11.571066299440774 4.0342209131440026 0.0
148 2 4.226083499320602 17.956823932797892 0.0 10.026640371131956 0.3966726758987722 0.0
149 2 14.622894867688732 19.481585986813133 0.0 6.549327849273247 -9.018936870897134 0.0
150 2 17.248998535429102 0.925495493506866 0.0 0.40473217371391235 1.9262993873933343 0.0
151 2 9.98545038853953 0.776516313797898 0.0 -10.062382699450865 6.002711894484024 0.0
152 1 0.7663671392228067 3.4454964621570734 0.0 -3.6289070837980764 8.66605949930088 0.0
153 2 0.5266524161424327 17.134726237101738 0.0 -7.993306791972405 -2.8677303380951544 0.0
154 2 4.68088934945686 10.486330742897952 0.0 4.529065451875173 -1.012432561342897 0.0
155 1 8.338996530835365 17.215043562676538 0.0 16.494802223232377 -1.4633113203647605 0.0
156 1 10.829813606689813 16.296589789911827 0.0 -2.0827186466485634 9.155460926282489 0.0
157 2 19.710508588216126 13.79911837896128 0.0 -1.4482407945589182 -1.9595329719270016 0.0
158 2 8.293341164812468 3.2430322871333526 0.0 0.688237620296623 -1.8675247804136461 0.0
159 1 19.50640257986083 8.159229355571483 0.0 4.0094682980278105 1.387841499432715 0.0
160 1 0.8172681774590547 18.494650993678565 0.0 -6.535233851763675 6.0133385903437855 0.0
161 2 4.214315635786851 0.8593812866587457 0.0 -9.626741857486472 4.328647527460257 0.0
162 1 16.938878666129277 18.00553525693299 0.0 -7.739802426713635 9.62093739472018 0.0
163 2 10.688583650558455 8.717671349815843 0.0 13.83025494878326 -7.837902546023351 0.0
164 1 6.68022089996464 5.427628710759508 0.0 19.522319401198725 -0.3123066005534839 0.0
165 2 7.384882526678777 17.39550618392797 0.0 6.03689552178969 -7.828886954249183 0.0
166 1 5.524113153287277 0.30910515964903557 0.0 2.537814157244401 1.2478974709489379 0.0
167 2 2.053603977497352 8.63018259576053 0.0 -11.991917861334317 -8.008397911608686 0.0
168 1 11.118129233647142 17.32388937285873 0.0 -6.850613382434544 -10.393604978876896 0.0
169 1 5.450182026196288 18.014662126486304 0.0 2.1844267920443663 5.118476118974971 0.0
170 1 2.0819578374917738 4.987344245368592 0.0 10.725266411864276 6.584296328320522 0.0
171 1 2.3441460002445407 2.149350228568957 0.0 12.946798882639007 -1.7940346801597054 0.0
172 1 10.138739489030346 17.434856168364078 0.0 -11.871059414671716 0.9086851877938735 0.0
173 2 5.138433606720578 14.227386051023414 0.0 0.35160656116461597 -5.235288186009181 0.0
174 1 0.7541621860346344 9.663344149931376 0.0 21.567388682282193 2.909568423255904 0.0
175 2 14.906951146834729 7.1739924130446004 0.0 6.113706032277145 -0.5246714389208966 0.0
176 2 14.673997789743996 3.371538152258197 0.0 3.896853714447764 12.799600253129507 0.0
177 1 3.539490742912984 17.438883071419273 0.0 1.0905006177866055 8.66163975151183 0.0
178 1 13.016529383466969 10.168463957723779 0.0 -6.9286339372161 -10.165437778080813 0.0
179 2 7.1534935946469735 3.5173906472614456 0.0 0.6008347666874765 6.08999942783329 0.0
180 2 3.3440921130581014 3.936739587333868 0.0 14.853756539165209 0.9879841167257095 0.0
181 1 13.991267663333115 1.401782385381453 0.0 -3.7460544700075804 -14.500861181707347 0.0
182 2 12.829476192027716 3.9495237117230375 0.0 0.14744392324808125 14.34315512620458 0.0
183 1 0.9541335084300716 18.087284695456464 0.0 10.451649679212112 4.63604502943592 0.0
184 1 19.47639094654434 7.555087896191244 0.0 3.722663980776982 15.71934618592001 0.0
185 1 6.796601765926776 14.931422519337783 0.0 -3.7618953701793543 -16.470209712170707 0.0
186 1 15.08476061957986 11.587507659109912 0.0 -2.0231403585296386 -5.049205142090504 0.0
187 1 17.30032156349476 8.579802386362587 0.0 7.4003699044794775 -1.9834610514739186 0.0
188 1 8.738747814304658 16.625572755781143 0.0 -10.470742500733776 5.377248773451755 0.0
189 2 3.911735661445906 3.18191224091784 0.0 -2.128302173347106 3.8710447642988863 0.0
190 1 1.708762572321461 11.795905391513935 0.0 -5.674935101949048 6.442351881004512 0.0
191 2 8.762903014438065 1.0785977407035703 0.0 -3.108786259608957 -4.261179263029125 0.0
192 2 16.890153830637654 4.713578466522325 0.0 2.072309364448897 -8.519331119515774 0.0
193 1 2.8888262936739353 2.083200024282676 0.0 -2.6120330690034157 -21.54086084704512 0.0
194 1 18.479988948369133 8.847942118763179 0.0 -16.054304047893453 -10.529117866364283 0.0
195 2 10.57464836874391 10.514539846991704 0.0 -16.199559248557385 8.863813595003334 0.0
196 1 6.368679071460567 8.52608564803593 0.0 3.672416369175304 -13.323842330909667 0.0
197 1 14.07969567930009 15.354918785730243 0.0 -17.262246636320747 9.307473487682376 0.0
198 2 8.988194321894053 5.990785769108253 0.0 -4.489774346896099 2.769564156847523 0.0
199 2 7.0258839212689015 19.495365127912667 0.0 -4.427592293189355 3.0299654739653876 0.0
200 1 1.032703621473526 8.482822517484676 0.0 12.302227744588812 -2.958497258089065 0.0
201 2 9.051466430341893 8.788768774009252 0.0 3.0234985411178 1.8962142864382057 0.0
202 2 2.893414280058178 9.83106227942065 0.0 -4.654971210214398 6.96831669752432 0.0
203 2 8.271065805583497 0.264162272365697 0.0 -0.5948127580329398 0.7557880183002696 0.0
204 1 5.066324322913933 9.486113780173763 0.0 -10.286738407813104 -13.056401403134274 0.0
205 2 19.033762941726117 4.208158314859401 0.0 -7.726490445602447 -0.2642252934424572 0.0
206 1 18.236502567679473 1.3088164456907918 0.0 -18.61582316299815 -2.700121965520398 0.0
207 1 1.0067346073208732 2.352001107037288 0.0 11.240673472387126 -3.5490451213543475 0.0
208 2 8.009759240462817 5.934626745839435 0.0 2.060004775507113 -8.133604916934308 0.0
209 1 19.66751261108886 8.604897391251143 0.0 -6.6126056064269925 2.9298418447215293 0.0
210 1 0.4615685262083907 8.816705965999121 0.0 -15.888902594109249 -6.4752059505864645 0.0
211 1 9.81178222876495 14.1392078160752 0.0 6.537991673502296 -11.138828508761657 0.0
212 1 0.9260242470781368 12.008025676110199 0.0 -4.8206499768547895 0.43980952353734276 0.0
213 2 9.616367397405824 13.369818028858125 0.0 1.2800976659985952 2.301085300971559 0.0
214 1 9.43335290990698 11.505033768194199 0.0 -3.175644857405154 -14.384532395622193 0.0
215 1 8.388247926206597 11.519285879552228 0.0 -19.672426073653362 5.3695359033758345 0.0
216 1 18.926243954194543 8.785063321430144 0.0 -3.591703238849303 9.712337186669865 0.0
217 1 15.005058959077395 16.116926688891834 0.0 2.991496738909174 2.4538515087802963 0.0
218 1 1.0364373625970809 17.65632216997271 0.0 1.9387564215891429 -4.880632655224535 0.0
219 1 8.128067657443852 16.758351650439607 0.0 7.654542717713788 -12.847438375674397 0.0
220 1 2.342388503282303 17.705482311349986 0.0 0.0010114223949609698 -1.9957869122831322 0.0
221 2 7.517283320368331 8.578601172849368 0.0 11.507603279525826 -9.060368547254939 0.0
222 2 8.42308261433199 8.081675004683982 0.0 -5.10168486035578 0.06354842153282879 0.0
223 1 9.09257569191601 15.53611425648374 0.0 -6.27391788592763 -5.493027655928376 0.0
224 1 15.618172232469565 4.601281148421464 0.0 12.104786560989908 4.720483655300801 0.0
225 1 4.07685789814278 14.578722100504622 0.0 -4.289833221250984 -20.475582010292946 0.0
226 1 14.601953882635899 13.92032890909888 0.0 7.962202636510488 8.413299200048348 0.0
227 1 17.855475356255628 2.4900134938152676 0.0 0.6823687292323118 -3.356167889056087 0.0
228 1 2.596878999069256 7.796824587413086 0.0 -5.244482633436265 -17.358896912623987 0.0
229 2 18.78999120017591 0.29224702244216505 0.0 0.887538589628305 3.1747058213192343 0.0
230 1 1.3566408147003157 15.621112778175918 0.0 2.9229462645966855 -3.8061449646594765 0.0
231 1 5.074226937856222 15.05081940588265 0.0 19.547893069892947 3.294045414789106 0.0
232 2 9.09030729765897 10.21917547051279 0.0 -5.828347655891957 0.7214023443381177 0.0
233 2 6.5206241662008155 12.545310664104178 0.0 6.461447845908765 1.886428240491883 0.0
234 1 3.384085890927141 7.291422161750486 0.0 4.935863104664572 0.034083662152114 0.0
235 1 18.532758779151795 7.194897958678303 0.0 15.316245637835639 -8.107159388076031 0.0
236 1 17.65100880765272 18.74502902946309 0.0 0.49881051303955637 24.814065022514498 0.0
237 2 0.5533075739667851 19.571916829266392 0.0 3.647683883240837 -1.1526523703744087 0.0
238 2 15.205284910913273 13.012895001324347 0.0 -2.616020908194478 15.83523962722111 0.0
239 1 12.468362160693859 9.418974347526584 0.0 11.860274202834836 -4.346391216607226 0.0
240 1 17.06960076859794 15.696471627253564 0.0 12.550708223947682 1.6489785998580508 0.0
241 1 6.000522898030173 2.0280243514349188 0.0 11.6987642057399 7.852623511575927 0.0
242 2 10.503285674483386 11.876546983094528 0.0 4.116907374713955 -5.686904880459448 0.0
243 1 15.803586323098928 3.1864087398047074 0.0 -7.01501590755499 -15.28209614336357 0.0
244 2 5.974035240130669 18.912625287250087 0.0 -3.15190062631143 -5.160229662880449 0.0
245 2 8.406589973566836 9.590212049935024 0.0 1.331482885031498 -1.3737967225815155 0.0
246 2 19.463524070912708 18.30395713822504 0.0 -12.908235441545035 9.410274139396067 0.0
247 1 18.96886209184769 15.168021648503297 0.0 10.432181204341433 -9.891292522570332 0.0
248 2 11.260719557423226 11.181901658339838 0.0 4.4969535279035195 -4.737068449378464 0.0
249 2 1.1273991715426868 16.493314747389803 0.0 -2.9386593146601103 0.03395656474393834 0.0
250 2 3.241366112901453 16.218667281175655 0.0 -2.7354357402796774 3.0425636988942606 0.0
251 1 13.395839268611446 13.148095067433427 0.0 -9.084404763578386 6.148809085951676 0.0
252 2 15.956755661174155 19.172961284677317 0.0 1.2419536806954374 -0.501498447196874 0.0
253 1 15.903499523083683 0.5255635662565746 0.0 -11.163163723224093 -6.934357564438231 0.0
254 1 15.938458620524802 2.1024690600208147 0.0 0.38375189921079755 1.7723437619774955 0.0
255 1 12.508762093162558 18.695754767297 0.0 17.155037010100973 -9.541558772140343 0.0
256 2 0.4448273021616435 4.281753350031345 0.0 0.5599093258489259 0.05693939802311613 0.0
257 1 2.6324209055527406 5.9919991070113445 0.0 -3.15731559143415 4.106761344078947 0.0
258 2 14.179269356659491 4.244003492488926 0.0 -3.366816221672087 3.9709594181176078 0.0
259 2 10.730958555638567 18.073756524602004 0.0 -7.069575851110256 12.346143479193097 0.0
260 2 1.4677035653341766 0.781392570154441 0.0 2.3916541366184267 2.2450425165773447 0.0
261 2 3.2104904464928934 1.2189160292056775 0.0 2.596167502328984 2.0482794439652836 0.0
262 1 12.055785949437185 15.733098683953441 0.0 -5.179454973767628 14.15818095557702 0.0
263 2 16.47630738109694 16.53904164252348 0.0 6.851219136369677 11.077798048417213 0.0
264 2 8.380477318992265 2.279239738611582 0.0 3.0192873877061506 -0.24779146978895897 0.0
265 1 18.678657362938626 15.513463548088355 0.0 6.361046349660953 4.206941051781489 0.0
266 2 10.76114666703886 6.751269699932631 0.0 4.212128945604442 8.392109710416126 0.0
267 2 9.115604364179932 19.724100602286832 0.0 10.260411865878856 2.6246472133665115 0.0
268 1 2.637637831307972 14.122334779200903 0.0 18.966209608268525 -1.1212616783300744 0.0
269 2 0.2330278801506246 10.242326588658576 0.0 2.2748124740449898 5.568370364963769 0.0
270 2 1.5563098144741658 1.7275978318906589 0.0 11.593718544299533 8.16216642673133 0.0
271 2 3.9469923053561713 10.1278846526649 0.0 0.9169620364743142 9.562949163609815 0.0
272 1 9.102012834697087 3.021242155276125 0.0 4.736320692888863 3.195795553480116 0.0
273 2 14.295818257099578 12.234726893734035 0.0 2.384347167781637 8.470849683924243 0.0
274 2 12.241525350631065 0.32869510448309863 0.0 -3.2509342088570357 -5.341194700105011 0.0
275 1 17.927410375372226 7.117361250062876 0.0 3.412733658429097 13.55341993327437 0.0
276 1 14.852870482167038 1.607924065886911 0.0 -1.7276582761396269 -0.8883144851627734 0.0
277 1 3.21123306791803 7.884460692242787 0.0 -7.562521118914433 -2.200674513008863 0.0
278 2 0.016247980751169705 6.433075611105738 0.0 6.283021851080129 3.31303724050853 0.0
279 1 14.263341616234728 18.017556399905022 0.0 -2.429789424045102 4.873471152294041 0.0
280 2 16.214325847499854 8.87076814839516 0.0 -2.464526034576356 12.422497237775907 0.0
281 2 2.399350595231735 3.3239320615838213 0.0 -1.6342732259168378 -2.0512165392173407 0.0
282 1 18.573805837953756 3.2105361772040957 0.0 -8.998419155626552 10.29033408978415 0.0
283 2 16.890033585035525 12.28164214078574 0.0 -15.131244478680598 -6.193548929098781 0.0
284 2 6.079981185297834 2.9424123167331646 0.0 5.3445563210416775 -2.6124633257559817 0.0
285 2 1.0270052474552154 13.13900821946323 0.0 10.855192530699505 -2.067263406616614 0.0
286 2 16.800269055013665 3.8502376331017123 0.0 -1.6889743893371199 -18.861416414563397 0.0
287 1 3.589287445508917 2.3396585749688636 0.0 -1.8233477768022444 4.803087735975858 0.0
288 1 16.224088867613474 10.127845410922324 0.0 -0.6136519635836011 -4.61346009853811 0.0
289 1 16.21045290240193 2.5538627544334545 0.0 -4.698796005527613 -3.843561137582792 0.0
290 1 13.82788732632475 0.37386923232613994 0.0 -6.721642134640778 -12.773006640996002 0.0
291 1 15.603901668714677 15.282521690235546 0.0 16.743131074673524 6.122091527998583 0.0
292 2 19.56804814815648 11.974288927853685 0.0 0.25973300651336706 -5.107613873611957 0.0
293 1 16.72874254777786 9.518239327864363 0.0 -18.614367476592264 4.1557727834223925 0.0
294 1 10.551389907671366 9.695965815461838 0.0 -17.158927200266586 -8.194931666091584 0.0
295 1 13.625020466767284 5.955554017388831 0.0 9.919668128150649 6.4436238460480295 0.0
296 1 9.492729959037252 10.971500595323963 0.0 -13.694284528367831 8.523067154316864 0.0
297 1 6.233893527408646 8.981450327846213 0.0 -3.620900695117327 5.486660965700047 0.0
298 1 13.543008026547632 18.33966667431624 0.0 -4.07547037828604 3.4354012228599937 0.0
299 2 3.474478156403039 19.72160548091361 0.0 -3.2698242801720925 -6.15646108128985 0.0
300 2 4.375849861425213 4.37921574582887 0.0 3.095085807552487 6.1248616918796905 0.0
301 2 9.5543144425814 3.8664036301567815 0.0 6.532407355465031 7.72417854555582 0.0
302 2 13.114919331897315 8.541197575771436 0.0 -3.4954042131285536 -4.62959573096222 0.0
303 2 9.779104731658546 7.556544221867591 0.0 4.2292449026587375 -0.4130352752595981 0.0
304 2 18.877422623951173 14.101571959670455 0.0 0.779483337871326 6.679719275976542 0.0
305 2 7.207359678166098 13.5787182202449 0.0 3.6064412252147378 19.395928306118954 0.0
306 2 19.258884453621352 13.008797048224293 0.0 -1.3115730200087314 -6.66266473199918 0.0
307 2 4.719862106957509 12.2392637024048 0.0 -1.7389141116816174 -2.6664585646411667 0.0
308 1 14.214722728446858 6.152529823229818 0.0 -11.25763809130803 7.048321588210318 0.0
309 2 15.874721890445228 12.626055651339016 0.0 10.67997102451527 3.0787363135046064 0.0
310 1 1.3139782983305888 6.104634114824286 0.0 7.317083461010611 -9.96554563670529 0.0
311 2 18.91288626192397 9.928120745591025 0.0 -4.963680735995736 -10.302633715672906 0.0
312 1 1.3544950819750787 7.683200402535852 0.0 26.358852887229965 0.3495742403551073 0.0
313 1 12.195577281435195 16.449850388226263 0.0 1.3967074063612415 13.397241651299634 0.0
314 2 11.662464475023869 12.340044034317193 0.0 -3.896340874305875 -2.0726146086570165 0.0
315 2 17.260454956369042 6.284376051211218 0.0 -3.6640362573566128 6.648178325796965 0.0
316 1 0.8250970440153427 11.320256414974972 0.0 13.210292620282809 1.7174543601819903 0.0
317 2 16.53678255322518 1.5077940839983393 0.0 1.9499828645215056 1.9755486228613324 0.0
318 2 9.043073593057514 4.999025001321889 0.0 -3.7292716967790156 2.484441141534677 0.0
319 1 7.943531055777246 1.5780333901278232 0.0 8.807922849546546 -3.35197601037818 0.0
320 2 16.67795584690442 18.720347482540866 0.0 0.5577759222342326 7.767634542329034 0.0
321 1 13.197265767900095 19.379510803622484 0.0 12.958837090121385 12.04832955347877 0.0
322 1 19.531259541944415 2.6927258119518585 0.0 4.612935470871049 -7.352448046066114 0.0
323 1 4.329858937900007 1.5918612886931813 0.0 -15.96278717245557 4.861040386978648 0.0
324 2 6.250659913216545 7.4045168383808395 0.0 -6.300770343904513 -1.8053301758150346 0.0
325 1 2.5815980921947497 11.990663364429325 0.0 2.512868875993798 -4.672337522192735 0.0
326 1 5.069363163381865 2.3450868375013614 0.0 -7.112617949216674 -1.982676112695231 0.0
327 2 7.796558268524905 12.061548269526758 0.0 4.884283551859764 6.334706889267542 0.0
328 1 10.218754325544827 16.149239916697862 0.0 -19.96547846386597 6.469128677820246 0.0
329 1 18.676424433231627 17.72746532104038 0.0 10.484480007472852 -11.11137769394186 0.0
330 2 5.965741502907931 11.52417299838594 0.0 2.9807156433156816 7.683684120078904 0.0
331 2 12.743563334728774 2.844930373822851 0.0 10.49471327509192 -0.7656261985214697 0.0
332 2 15.983252097602463 14.229228420278055 0.0 7.063230106304309 8.896540062282986 0.0
333 1 1.3554671747885205 14.885574526762102 0.0 -5.894735486758663 -12.247357558746621 0.0
334 1 12.598770608900772 16.992286087901533 0.0 10.859883809299733 -10.785891345818063 0.0
335 1 9.366323263472925 18.036921376573975 0.0 9.313348543373072 8.951255108429942 0.0
336 1 8.52169019698008 15.480273732896071 0.0 15.898855680423848 -0.12551944805829196 0.0
337 2 15.806298935954164 7.9660725688257195 0.0 -5.664882190177054 -6.74207843758596 0.0