ITEM: TIMESTEP
0
ITEM: NUMBER OF ATOMS
400
ITEM: BOX BOUNDS xy xz yz pp pp pp
0.0 19.7609 0.0
0.0 19.7609 0.0
0.0 10.0 0.0
ITEM: ATOMS id type x y z vx vy vz
1 1 5.644878822653569 4.010482575863675 0.0 -3.418223414954614 3.3940326524202247 0.0
2 2 3.5217731643733563 7.023747941648689 0.0 -0.6632937941772791 4.692892209311483 0.0
3 1 13.234732691477626 0.7862598283865936 0.0 1.2750696663140921 7.076141422482139 0.0
4 1 4.847174997896675 13.213351531115556 0.0 -2.2278572158655185 -9.17055923038296 0.0
5 1 8.476325920715448 11.028255059914404 0.0 0.07444109616785514 7.84144905643692 0.0
6 2 7.578676696637591 9.955226490778132 0.0 -1.105051822747512 -1.5412659399667255 0.0
7 2 8.184216609988836 9.242930766776102 0.0 5.369218432859598 -8.649502335314365 0.0
8 1 3.3230107455432143 9.38665044924528 0.0 12.192438261636573 -11.120390527835921 0.0
9 2 2.288228130474041 18.34439516802953 0.0 -2.2156640138249992 4.554043762917033 0.0
10 1 5.928833278502237 17.61827316638121 0.0 -5.186343941086207 -22.95377756438089 0.0
11 2 18.474752780470975 17.451458240273872 0.0 -6.820981271851302 -9.158281974582422 0.0
12 1 7.2299412722335 16.433217828640498 0.0 -1.1532896876095136 -15.495824926784001 0.0
13 2 7.1589585806096165 6.534667962428126 0.0 2.668509897544681 0.5669989443357013 0.0
14 2 13.06879636276845 14.449920849456847 0.0 -1.978684169479261 1.5789451523901101 0.0
15 2 6.8927258476240985 2.0635374607018444 0.0 10.537870179637093 5.377464731989743 0.0
16 1 9.841916515723957 4.532382942724111 0.0 4.264584762891242 0.21134562967484397 0.0
17 1 10.49698225011831 4.715603455884805 0.0 7.583405904362574 12.191216790408188 0.0
18 2 2.172228704051751 15.928897954738343 0.0 3.0526571228596473 6.566090537020338 0.0
19 1 16.90514642780046 3.4327859782512085 0.0 -11.869462605528861 7.104774164632115 0.0
20 1 9.313020651703528 6.337340356252765 0.0 4.019158375416786 4.811796696820473 0.0
21 1 14.205199192867301 13.140153883451829 0.0 -0.8345941313862341 9.14502721440336 0.0
22 2 6.485204381021545 3.1894121218025995 0.0 15.879042835252458 2.538749988280588 0.0
23 1 0.7070907244344677 1.7051452539891918 0.0 -1.2733226682185488 -2.829886092180164 0.0
24 1 9.545730961283857 13.874441154245908 0.0 6.941102513028747 4.815856822488425 0.0
25 1 1.9006598138137378 0.4019957529340638 0.0 -0.14380826151129528 -6.098153196728808 0.0
26 1 5.119943393807716 10.768610981123494 0.0 -4.599456157353339 -2.315802732010701 0.0
27 1 11.775475822404287 3.7768150499769213 0.0 10.660837221672669 -6.143911563092807 0.0
28 1 15.007856569726682 0.09543110560834582 0.0 -2.0251448769913263 -5.282398048937006 0.0
29 2 16.250792557189232 1.5999012813521694 0.0 0.1106344594425583 0.9854404451682995 0.0
30 1 17.031471291288636 11.059057327707889 0.0 2.1495345650236524 -7.663194952096228 0.0
31 1 10.158319578837972 16.84144752927613 0.0 -6.741454263550154 -3.4416977823837342 0.0
32 2 14.886422019475605 10.40318463331017 0.0 -0.09298357380759185 -1.916004542017995 0.0
33 1 8.110046135434734 10.720120334726504 0.0 20.62700513752392 11.336166260723875 0.0
34 1 3.98890227424352 3.222117726194581 0.0 3.6129287902261757 8.915206500245242 0.0
35 1 16.968371388918076 2.099124110550123 0.0 5.535555779109471 -7.204257906505978 0.0
36 2 5.7848086007302655 1.8984729092758648 0.0 9.686130507431354 4.396165353978037 0.0
37 1 1.710747490707337 8.221841846159782 0.0 -26.679011569461384 -9.846670552152087 0.0
38 2 4.757897480335214 4.80922025290117 0.0 -6.11830531369422 -0.7658004579005859 0.0
39 2 0.3665915390214199 19.450225449428572 0.0 -2.572769156804029 3.8690505250441314 0.0
40 1 1.2146980695512308 7.778839586360751 0.0 -9.12830189347938 7.918758064001719 0.0
41 2 16.09637292158977 17.976926696194393 0.0 2.7258749561489566 -4.399030602417018 0.0
42 1 7.2215459237165085 5.170813651155941 0.0 -7.733113963068459 2.499929101677962 0.0
43 1 14.497417257365461 12.43791777019091 0.0 1.0193513585110845 -5.071713046606627 0.0
44 2 8.572378320349168 8.083273215273204 0.0 3.063452098256163 -4.324194352088107 0.0
45 1 9.991125965839267 12.624241481860121 0.0 -3.821278118349702 9.025922311063084 0.0
46 1 16.708795712479045 17.148814622816584 0.0 -5.327168568050586 4.22147049066292 0.0
47 2 19.64533519102703 6.510357270517346 0.0 -10.683800312629616 -0.11941803491004035 0.0
48 2 8.378232916002275 13.880809030825485 0.0 -0.7229454784009052 -1.5124498217593396 0.0
49 1 15.765327296941335 11.454284542113093 0.0 9.353482095449673 13.293780416594647 0.0
50 2 7.2294822672622505 9.08919226170813 0.0 1.02496480223107 5.662433827057098 0.0
51 1 12.006738504860207 14.433404727258434 0.0 -0.3816735608854878 7.304255840267783 0.0
52 2 4.197509335682652 1.66583307998218 0.0 -4.492885959365573 -4.781739084516418 0.0
53 2 13.781965567692755 6.044945575558092 0.0 -5.814392049188056 2.399835283530787 0.0
54 1 10.574110007213825 11.022425743661802 0.0 -2.8591492597819426 4.029656954389743 0.0
55 1 8.219094548432858 18.442290031019187 0.0 -4.507995982597361 5.664231940933016 0.0
56 1 13.226660079388996 6.850659723309624 0.0 2.6149568827885354 8.133826708599662 0.0
57 1 14.84708825221358 19.3765885754331 0.0 13.587799777982932 -4.156732113509416 0.0
58 2 6.181115604749925 11.691408213609051 0.0 6.032131158587249 -10.120921695863482 0.0
59 2 1.0219421295160873 13.523666994013116 0.0 4.346797323579533 -2.1285958631301436 0.0
60 1 9.117494556015048 12.07574619254005 0.0 -5.65049386746524 -1.790547686111839 0.0
61 2 4.968389903827845 17.170855598561094 0.0 -3.2310484008368765 -10.742971255791819 0.0
62 1 17.9818432166929 1.567065403637025 0.0 -11.240135662010438 14.073309978291451 0.0
63 1 1.7891019895615823 2.790498360827604 0.0 -9.08564015814417 10.302440733027733 0.0
64 2 17.39650689478327 6.547596076205199 0.0 0.6185959701184823 -1.4158227118109574 0.0
65 1 6.7865258398706105 4.191844113422318 0.0 -4.379455402288544 9.4672634306743 0.0
66 2 13.272948133788178 5.099755993942301 0.0 2.110278198891965 11.956931187259933 0.0
67 1 12.781595800513763 2.4081963286841974 0.0 5.266515008089992 -4.001046555559209 0.0
68 2 14.292747925423877 17.14362106626768 0.0 -2.025721188470186 -1.2086638430256362 0.0
69 2 12.79357593197519 9.554378667814513 0.0 -2.377964931847595 7.022404103620694 0.0
70 1 14.436027490937521 0.6182577526485249 0.0 8.01963496529382 2.345809434823886 0.0
71 1 3.333699950503455 19.01144304516855 0.0 -3.3800702221899828 0.017877771869518753 0.0
72 1 9.54622393139864 2.773515771460233 0.0 -6.938536965646093 -24.120089466200458 0.0
73 1 16.199488712682 10.836470632789997 0.0 11.116305848602305 -7.723277561786019 0.0
74 1 8.592962736649378 5.843308821844114 0.0 -5.791442407963527 6.095947661767306 0.0
75 2 0.3414344899014529 15.272457983295064 0.0 -10.755933612945418 0.8047639835502182 0.0
76 1 18.022486817174126 16.534463135296402 0.0 -2.2333910273772024 7.94055160116458 0.0
77 1 12.433356031537995 16.48444821584792 0.0 -8.742795012233904 6.780119456772369 0.0
78 2 17.896884814630234 10.604701887449517 0.0 -13.408414816202818 -0.19118683881560983 0.0
79 1 10.563674659517009 2.3899360619343453 0.0 -2.4551751699007376 14.872260309184707 0.0
80 2 8.441113295205401 3.128796260864439 0.0 -1.7325104983618465 -3.6168651050404113 0.0
81 1 11.958928949310568 12.054576289838703 0.0 0.018948177830462244 3.0648954179484416 0.0
82 2 1.137194123919167 5.993054805866904 0.0 -10.028301847041853 0.8155818633199722 0.0
83 1 7.088266622944311 17.355413817878613 0.0 -19.02027137629176 -6.9326782837574505 0.0
84 2 7.440958086252142 7.318963176857537 0.0 -2.4138851855250474 0.47377496215813053 0.0
85 1 13.42969051757711 17.56574987811689 0.0 -14.919706467859214 8.854670324884347 0.0
86 1 16.383779002205802 5.233875253569309 0.0 -7.245355162160762 1.8081911481615227 0.0
87 1 4.903988739753635 5.773989030626118 0.0 7.84592232322806 18.358208453889006 0.0
88 2 2.835018283853617 14.210632579151046 0.0 7.308900146492232 1.896740818543678 0.0
89 1 13.718344888176976 12.462756911469992 0.0 -2.6682861015838926 12.611223645670213 0.0
90 2 10.707510617682226 6.712287602738437 0.0 2.7965925980946897 1.0171564443615457 0.0
91 2 8.63396540480826 12.753808429348245 0.0 1.5020179205047361 2.923829678782919 0.0
92 1 1.761482094130157 12.643166752125426 0.0 5.770784291607501 22.557780259014258 0.0
93 1 1.6798524272721087 1.1650744846769308 0.0 -1.88715007632096 -6.500723090524451 0.0
94 1 4.716874840027751 14.567328022515849 0.0 5.467583198090396 2.112357030976735 0.0
95 2 15.63006932689974 6.645509237842582 0.0 8.140857067553544 -5.36625038635661 0.0
96 2 18.077921477449962 9.42871356801632 0.0 0.5288674424054662 2.9299900436574635 0.0
97 1 3.6255769141729774 18.405963249437455 0.0 15.34540349260752 15.491751294438137 0.0
98 2 14.681740388723897 17.993604181231866 0.0 -3.5298758679156315 -5.9570577710407315 0.0
99 1 0.2629587195763236 4.262283061757319 0.0 -5.538487935310519 2.803633175607494 0.0
100 1 10.490085693802675 9.616492123154048 0.0 13.8920246614222 -9.133866802897222 0.0
101 1 1.877854604108079 2.3773766104888145 0.0 0.3455746169745724 7.574305345342535 0.0
102 1 14.755716468888718 7.37919368249131 0.0 2.542064719996138 0.5980165609342922 0.0
103 1 13.372412006032919 8.840255839519756 0.0 10.330936817424567 -8.48314050400192 0.0
104 2 14.018281441474896 9.500709916018875 0.0 9.822969062866578 0.7012433616256216 0.0
105 1 7.924537139401112 14.616762616143165 0.0 -2.296489589085697 -0.16647894445648487 0.0
106 1 11.85805148969491 15.58464688307862 0.0 -4.862735550899999 4.928228976142915 0.0
107 1 6.417823895972721 0.07295385899231381 0.0 -6.584030794510822 -8.38224335014036 0.0
108 2 3.3441604199840427 10.501640869619152 0.0 -1.9392502801191582 -2.138674328459053 0.0
109 1 15.58213663522169 10.844981613149296 0.0 -5.578482022490901 0.5635590630320544 0.0
110 2 13.507009814270857 16.763084903384186 0.0 -3.7251609665530205 -0.3515299480308633 0.0
111 1 1.585708156888203 19.075476428134316 0.0 -0.22420723772075893 11.91174942210706 0.0
112 1 11.599430760304568 18.10010938512563 0.0 -6.434625678036939 1.4491378349487674 0.0
113 1 11.800486808495366 19.634530993654288 0.0 -16.830069937970812 5.669281620178386 0.0
114 1 1.9889312546863682 14.549222530602501 0.0 8.059134640893797 2.3321160131320973 0.0
115 1 7.64753153678815 2.335050456293283 0.0 -0.26470637872358577 -3.7225410042045013 0.0
116 2 3.0849713971591655 12.430794640235993 0.0 -5.757618445591507 -8.566155309083708 0.0
117 2 19.38471040455557 18.295705458044743 0.0 -7.097412097721873 1.1692627931418218 0.0
118 1 2.679491881180888 8.959367615137545 0.0 12.80127166250358 -11.570384664166115 0.0
119 1 1.883248935586293 17.63882874790027 0.0 9.460241095362882 -13.525747746814288 0.0
120 2 16.698452122431245 7.122825567972861 0.0 -9.023917024199443 -6.958658827095948 0.0
121 2 11.564096090552157 7.664005258279472 0.0 8.148485026985254 4.6927234110296245 0.0
122 1 9.533391584988093 12.543967076678769 0.0 18.319802453746544 7.714708853853571 0.0
123 2 7.7836842230418135 4.290464113832979 0.0 7.577244974698227 -1.1478690939183447 0.0
124 2 17.193428253590078 16.04486804625188 0.0 9.901139351222536 -10.325533892435605 0.0
125 2 17.65176903065172 14.491774225708863 0.0 2.0399471908177356 -1.0008194191766573 0.0
126 2 14.894586041589232 11.480555600333682 0.0 -1.243648334086819 -2.095292427272763 0.0
127 2 19.069755786233245 9.809752901773432 0.0 -4.619098405524798 -0.630772820491556 0.0
128 2 2.4706406658633586 7.570637993351425 0.0 -3.883793033603588 3.6585202542349142 0.0
129 2 18.864624879883202 12.093743783830652 0.0 5.419388755802172 0.7823503983391271 0.0
130 1 10.257959190061595 13.389398659962913 0.0 -1.1181629243298197 -2.987867796309348 0.0
131 1 13.390641844643044 19.293528622930303 0.0 -7.027493580495703 5.66335761838657 0.0
132 1 0.2899849485188577 7.526308085874247 0.0 10.745278519265934 8.27641395379345 0.0
133 2 0.3520453792017318 8.494459305595916 0.0 -0.3750652926218238 -3.0324508282266307 0.0
134 2 10.475584278198179 3.80507859926392 0.0 -3.931016053058207 -1.106515502214872 0.0
135 2 4.049734955464238 12.705296530921165 0.0 -1.1976396065691997 -1.9466054161653994 0.0
136 1 0.42871532780760024 2.9042296889131283 0.0 -9.291562189602246 -4.8477268909360225 0.0
137 2 4.959061119780901 1.1809999174728447 0.0 -0.5547485454603596 5.278679093596139 0.0
138 1 15.954481997827527 16.261745057257823 0.0 -8.90089966274877 -19.265508558801205 0.0
139 1 11.866520024298277 14.977799394260568 0.0 4.167784564222337 -2.0986177325553106 0.0
140 2 18.463058063184693 0.6340964559832596 0.0 -8.612911837252977 8.65797585413032 0.0
141 2 12.412200719562806 8.024206328583212 0.0 -6.096227526117602 4.81711935198291 0.0
142 2 16.004471018408005 3.2786411470388743 0.0 6.042212286838841 13.409004650016168 0.0
143 1 15.413588739676362 4.0601920381130885 0.0 5.58023476110035 11.716976028656056 0.0
144 1 12.055091384169746 17.369256607704813 0.0 4.759410269935608 -9.119519437825357 0.0
145 1 15.618226166246576 9.378484681667157 0.0 -11.720368808796833 2.7574711552464732 0.0
146 2 3.3972484729926418 4.200936161611634 0.0 5.566873828329603 -4.557064262843396 0.0
147 2 0.19503711408406882 12.965885978748835 0.0 4.99463282100236 0.5736046124513812 0.0
148 2 10.58678656134296 15.253653867654824 0.0 0.17053063020058384 1.9904164221781655 0.0
149 2 9.213781604301252 15.816202825745528 0.0 -2.2517144580672124 -12.556828993597048 0.0
150 2 14.57385189023612 15.083989989111382 0.0 1.1518824483720276 -1.7866805533969254 0.0
151 2 9.044476524009395 0.6233781568788601 0.0 -0.007105949055268745 -8.71946693105424 0.0
152 1 11.368215981830854 12.036490608451711 0.0 -1.9659359806289758 10.06390527757923 0.0
153 2 15.08733066956125 16.342661942569475 0.0 3.4343379587308913 -0.5654587447429356 0.0
154 2 1.4629592644948874 3.642838928200287 0.0 5.482775690157622 -0.6351761479791823 0.0
155 1 2.903387331644518 16.464403812282704 0.0 -4.369764433811534 -6.994919351103384 0.0
156 1 2.137672100108196 1.526084284726807 0.0 10.210000764244972 -9.953841693568478 0.0
157 2 5.581888724975464 15.394752976675248 0.0 1.202849745017266 -1.07986731309178 0.0
158 2 13.643016290007022 8.017710009369527 0.0 7.409756931652281 -1.2263944527043615 0.0
159 1 12.792495089405861 18.956400148223178 0.0 -3.719615199983275 -8.425743542126833 0.0
160 1 6.761866824549986 10.728988830526974 0.0 -14.510760034010291 -4.678291938644254 0.0
161 2 17.669383198457187 5.586783365098648 0.0 -1.757951499320579 -3.6865559045402945 0.0
162 1 6.754560021283082 5.361959188221281 0.0 -8.066676387266723 -3.01164525345853 0.0
163 2 14.240321904511628 14.08832966738329 0.0 2.667731991393853 -6.015685665684183 0.0
164 1 4.662112350135901 18.427879301322218 0.0 2.9083507524933707 4.946829067021242 0.0
165 2 2.889511238515798 17.348163585335147 0.0 2.1892966007398877 -9.451797196138841 0.0
166 1 7.345673166153041 8.293159044753068 0.0 -3.151344783335243 -3.161640766313257 0.0
167 2 2.19654205681161 6.240248757198238 0.0 3.432508210086035 6.515911990011707 0.0
168 1 10.803776035045894 13.91965313893138 0.0 4.878862011894079 -19.218393328738127 0.0
169 1 4.439300559139635 7.7429856542717985 0.0 5.864840821010646 -2.067173820544367 0.0
170 1 8.237179240296218 6.406142517449833 0.0 7.611256986692757 9.06200989724097 0.0
171 1 17.345047836649346 18.439569707836686 0.0 -1.6680255565462292 17.181298326733263 0.0
172 1 2.2181265880894476 4.949827744933345 0.0 -12.805723074523963 4.511462818863573 0.0
173 2 18.21415533316457 12.765753873023748 0.0 -2.5295536903066047 11.867490644942055 0.0
174 1 1.3846907509216273 16.99135741842426 0.0 3.4385607524182684 2.436408147692195 0.0
175 2 18.49319357210822 8.37646694623576 0.0 -0.7303459158237037 0.973605876648486 0.0
176 2 11.462807824251426 0.9075758592571516 0.0 -0.7464780489029358 7.6448083252955765 0.0
177 1 4.586438963021927 19.226097684917217 0.0 -3.4803660801231056 -14.67850103269415 0.0
178 1 19.684986348462143 3.2085494828941354 0.0 7.525324421057382 4.3888202948295945 0.0
179 2 10.653462612359977 8.348249703426157 0.0 9.205139307979797 5.408942713480876 0.0
180 2 2.0111979991712032 13.638286731818296 0.0 0.32937730892346184 -0.23776798825571865 0.0
181 1 17.016538499106133 3.967285567727688 0.0 1.3877735868441323 4.438410739832392 0.0
182 2 6.538048535060592 18.96162296773301 0.0 -7.906179726795088 3.0955567205281986 0.0
183 1 3.948147548970926 19.501662010123397 0.0 -7.559784174633582 6.452347148337842 0.0
184 1 17.80929560209992 18.014381793667578 0.0 -9.810067452782997 -21.57816502078947 0.0
185 1 6.950350824010675 15.617474958954713 0.0 0.9676970307689245 0.22814778829573373 0.0
186 1 10.135371817248101 12.149226985654654 0.0 -1.654256422249311 -5.071885955076323 0.0
187 1 10.479613863740624 10.57905958521388 0.0 2.244517735122442 16.12573111397855 0.0
188 1 2.4338229142941037 10.395023503614823 0.0 -8.077534313598504 -11.146864416114806 0.0
189 2 16.870822090172528 14.470967739962534 0.0 9.431570897854368 -11.387105707136138 0.0
190 1 4.246823725058017 3.661039070721804 0.0 -10.324092245828712 -4.163112254783128 0.0
191 2 18.495033924955585 11.222695667908535 0.0 4.129768691651884 6.028259077067124 0.0
192 2 10.336791505994524 5.595184480323981 0.0 3.5832849565147873 9.359810506596858 0.0
193 1 0.188395774215087 9.775182708866618 0.0 -5.61758395686739 -5.26970869914138 0.0
194 1 1.0505450504953586 14.54990226561009 0.0 -8.397385373356716 6.015112050218161 0.0
195 2 16.88340767782411 9.900781946935522 0.0 11.748342511904843 2.850447461093308 0.0
196 1 5.988423642389187 4.302082568563981 0.0 -1.6986817359368904 6.666135636151348 0.0
197 1 4.334729861692369 2.4165194264716687 0.0 8.040147497063645 -12.581145651102831 0.0
198 2 9.394677941501337 3.629930102435462 0.0 -1.5098015603467463 -0.28519648621876176 0.0
199 2 10.285605074937656 1.6321464759776627 0.0 -11.736639507042712 -0.059180644943928225 0.0
200 1 6.920493051917263 16.952511923334956 0.0 -7.81606833622594 15.574683255825962 0.0
201 2 12.36692086164668 7.058640318045219 0.0 -3.8212036396843088 1.399904553177821 0.0
202 2 0.8092684584705636 18.708641310727927 0.0 -4.162325415775328 -8.587174536726671 0.0
203 2 5.124101089943141 0.12293273116017737 0.0 -1.920278657438687 -4.732701791715191 0.0
204 1 10.09755671862378 10.096086149741103 0.0 -7.761364503851498 18.086212324327093 0.0
205 2 16.187074627042133 4.333129699093183 0.0 -6.735751734512167 1.9552285787659736 0.0
206 1 12.804908600343294 11.924757509657423 0.0 -11.832308143019068 8.190525831126964 0.0
207 1 10.741419671396557 12.428457655362516 0.0 6.19580259745468 4.469990748233216 0.0
208 2 6.401693629026157 16.0833529195321 0.0 9.256148185548206 3.4935126114349817 0.0
209 1 9.160665069279748 2.3097277751758933 0.0 -2.57272481430723 -17.630085947897605 0.0
210 1 1.389333576788611 11.634285084996092 0.0 2.890268293200315 1.2304759412210595 0.0
211 1 2.5567536829075537 4.357829021491954 0.0 2.0313588010060686 -4.850437882046385 0.0
212 1 11.261319138383035 13.071946359861608 0.0 1.947208149591205 -15.615445054800311 0.0
213 2 8.788886162875677 19.160084887487 0.0 4.701553296231172 0.9440678551069343 0.0
214 1 12.148260824465197 2.816696122483099 0.0 -2.3240297623519774 -8.029279809980515 0.0
215 1 14.169919328820253 7.211328343461724 0.0 9.129867808558567 -0.7123837012140066 0.0
216 1 0.9229139954087638 4.496599002746663 0.0 -1.4079511366278574 -10.762114388180033 0.0
217 1 10.087034487524791 8.911566603916448 0.0 8.456757534649801 2.5398580843624723 0.0
218 1 16.802972977292214 4.870388748005377 0.0 1.6362020663850443 3.5720700982022215 0.0
219 1 13.760476127988586 4.299678937326173 0.0 -10.877021662416333 -15.230423817347097 0.0
220 1 17.68868935584102 17.067998643724465 0.0 5.892393895900257 -0.7411142982998846 0.0
221 2 18.87242103858673 4.7917873219403555 0.0 -1.6247752494998977 1.1595753710360626 0.0
222 2 7.51146920676926 3.3098880129484365 0.0 -2.1735669264555963 3.909149089997626 0.0
223 1 13.952771293300502 18.50820451560045 0.0 -9.860883590081336 3.5704664495028005 0.0
224 1 7.748062275565604 5.733309695605424 0.0 -15.248643724431025 12.129043682107563 0.0
225 1 9.654588054011546 17.34427187578592 0.0 -4.499684417432839 -1.7133568761246767 0.0
226 1 12.223800928554038 13.863981969304165 0.0 11.02912356688224 16.01040968633905 0.0
227 1 11.30923810515448 16.0092946018032 0.0 -10.240884625449038 -14.413968402956645 0.0
228 1 6.451476741037482 10.320852255202281 0.0 -10.41973893707048 -12.307998296320168 0.0
229 2 8.043988087616198 17.114629606445085 0.0 6.100339930720295 -9.0135688973394 0.0
230 1 16.061330610733513 5.831913045829539 0.0 -7.491605592345408 7.885922487567931 0.0
231 1 13.185376980330838 10.710313384567089 0.0 -1.0846489264130452 -6.4877107688518985 0.0
232 2 16.653971861671472 18.629040481799926 0.0 5.226532233766209 -1.3115805893254349 0.0
233 2 9.786366101330888 7.433213518191314 0.0 6.833218201985904 2.3715141953706422 0.0
234 1 4.229164889542457 0.3757614712279087 0.0 7.596319065427044 -1.947056614349013 0.0
235 1 6.9656862810838245 17.93033909201702 0.0 -1.6599414219264716 -7.384977031524782 0.0
236 1 4.5884836626604235 13.786437986435708 0.0 -2.06091664156419 -1.2313582320371137 0.0
237 2 5.552921904290979 13.966814005719218 0.0 -11.583737817715404 0.05404952643515857 0.0
238 2 14.52688411176608 5.313352696844053 0.0 5.814640743802788 -0.7851401775557062 0.0
239 1 11.260168676770709 14.72725862820284 0.0 6.060640363248681 5.019979454738432 0.0
240 1 19.674133068427704 2.57443885543069 0.0 3.9389792181632206 -3.084795427434844 0.0
241 1 11.588530599628164 8.892973005117781 0.0 2.387648666890489 2.938634053899703 0.0
242 2 4.218169828964043 9.370678865591556 0.0 4.754701620593891 7.256991212353539 0.0
243 1 1.7415180441529228 4.874401624758094 0.0 1.5093495021257943 -2.54961584952715 0.0
244 2 11.517350525525629 6.053591922753662 0.0 0.3233960949511515 -4.231984342661569 0.0
245 2 11.493813917195485 4.602966940412577 0.0 -1.6018496949379453 10.954994731404392 0.0
246 2 12.28280420849518 10.70992725819665 0.0 5.679485645703991 -14.684950654915145 0.0
247 1 2.6581592702584116 11.4184195636182 0.0 -9.147440266419414 -15.083156863169014 0.0
248 2 3.7077432624717765 11.275229874732588 0.0 9.630251090398582 12.7898858523367 0.0
249 2 3.7806273137674675 16.13677281373671 0.0 -12.323804385390707 3.78320636193401 0.0
250 2 7.542976214326913 13.013785843675489 0.0 -5.979280319248683 -11.13402226775638 0.0
251 1 1.2445371554104772 2.18622529672009 0.0 -0.4468094438485461 -7.893044828771743 0.0
252 2 18.060167046702393 19.587821527535706 0.0 0.916669620727494 5.049056274749303 0.0
253 1 15.445802531367399 17.21990017105617 0.0 0.7031867795238841 3.025678934816782 0.0
254 1 11.186317984019642 19.611849734621842 0.0 1.5040146139396975 9.405028138056746 0.0
255 1 5.813094663237836 12.82893780070573 0.0 -10.554146210239683 4.449831529635419 0.0
256 2 1.2198948148846578 16.0833452162023 0.0 3.317258448079975 5.50213607897805 0.0
257 1 17.984711169874554 15.688951314674755 0.0 5.329830968055464 -14.703993689456839 0.0
258 2 4.767587270269246 6.631595749406425 0.0 3.801328548081854 1.8870133523452708 0.0
259 2 5.545773034545102 2.9609466937419326 0.0 1.7384188638837965 5.902408058014938 0.0
260 2 0.7260395899333929 17.823930288823465 0.0 -0.9282633618080464 3.268354110617 0.0
261 2 15.940650670004498 19.145985595814444 0.0 0.8169909861998269 -7.752992927839741 0.0
262 1 19.211273224004426 2.7872707524677 0.0 3.8125378984652483 6.575953149004816 0.0
263 2 12.504669035024685 12.820574225261021 0.0 -6.4872187122277145 -1.2158787047986774 0.0
264 2 14.585430825781074 8.850496079535453 0.0 -2.249122249119441 -0.08577311909136837 0.0
265 1 1.5104315341357237 12.167891469734245 0.0 3.738087216746964 4.863619341508779 0.0
266 2 5.225822362957787 12.304624256308259 0.0 -2.9972993488169006 8.345493508422505 0.0
267 2 18.578621494155 18.67689208399097 0.0 3.5111536155126792 -2.752680039455592 0.0
268 1 8.515202668376558 14.652600749054178 0.0 4.273591383389063 -8.075500038185243 0.0
269 2 1.6807624998732773 9.356836270505656 0.0 -0.9721124615613445 -7.767634222269003 0.0
270 2 12.345955355032924 4.821404500139115 0.0 -2.629473892061516 5.962559942517031 0.0
271 2 3.2440332755277845 8.281334819530091 0.0 -1.1163273033051946 -2.511600063787278 0.0
272 1 8.692508460287465 4.153721690841068 0.0 -6.1586429227682 -6.387275089408116 0.0
273 2 9.322820770075522 8.548401745949805 0.0 9.541924971597487 9.39209369873888 0.0
274 2 13.437067725670202 15.387683232615027 0.0 10.699497607410851 2.960179134882368 0.0
275 1 17.46001350976706 1.564988521413143 0.0 2.1125061685207958 2.4859921492786294 0.0
276 1 0.38319987894604157 10.29813557180503 0.0 -15.78256188671874 -3.911197371333083 0.0
277 1 11.348645313147694 3.0745356927170473 0.0 3.186407833922656 -9.129725204815953 0.0
278 2 11.440009744729887 11.163471187165367 0.0 6.323816223698548 -0.37005757089990793 0.0
279 1 13.375999375332773 11.7847421466733 0.0 3.82771058200277 3.016505394836051 0.0
280 2 15.418011304497163 15.549204064569613 0.0 -5.1075949140848795 -2.694964042202781 0.0
281 2 19.201639635807314 3.75331728580084 0.0 -1.6685899498590786 -9.32371925058072 0.0
282 1 12.506620485101633 15.76084688788647 0.0 2.8038263529348266 -3.221847424538068 0.0
283 2 18.794446260932023 5.705164952144712 0.0 2.519169961375733 -0.13293740380792882 0.0
284 2 19.50749499249586 14.481664337263501 0.0 1.6764427620237279 2.412709372757645 0.0
285 2 18.428687681073217 3.017138575306755 0.0 5.489081583646621 11.790102088982982 0.0
286 2 0.7474157532522017 0.5263598464355134 0.0 -5.496496673352134 0.19971501246755247 0.0
287 1 11.21305454690501 14.211039453151642 0.0 -9.607552664873795 -14.675254072534747 0.0
288 1 12.607815418591196 11.513284570663556 0.0 7.602506525417707 10.698560988084251 0.0
289 1 10.256479145550536 2.858044757550222 0.0 -5.565271541319534 -19.176548868888275 0.0
290 1 3.8744509595583243 18.940990026759053 0.0 4.152999427473886 9.267093618140661 0.0
291 1 9.227399712935792 18.070434517284568 0.0 -2.5444364762976455 -6.608799240390473 0.0
292 2 4.585511489445886 15.488751577127662 0.0 -5.387281042099312 2.2802826916416423 0.0
293 1 8.4849892448889 7.21271212468521 0.0 -4.803645470822659 -11.399602792232754 0.0
294 1 1.82036726887919 16.86271272002594 0.0 -10.467448350507995 0.9002163353152419 0.0
295 1 2.3305717036743046 0.11121885789623288 0.0 -8.530814157506587 6.2156941813768105 0.0
296 1 17.32552276817988 12.149450671171044 0.0 -3.065130699075369 9.819925994239878 0.0
297 1 3.716781655998229 13.735287036925989 0.0 0.28879057749242476 5.382310191579208 0.0
298 1 14.750448934670004 6.2207938509529495 0.0 -14.854086866530023 -3.4779793558953562 0.0
299 2 15.254905147426891 2.537969923464055 0.0 -9.515343999958064 -1.2611395621178205 0.0
300 2 19.148773914537784 19.39182609912819 0.0 -0.8562256600409109 -7.837820089267953 0.0
301 2 7.484795578533122 19.074630406470156 0.0 -2.337743790984255 5.606811511158349 0.0
302 2 7.909588444946782 11.749710725787446 0.0 -4.391937686910247 -8.290040913299062 0.0
303 2 2.838005674092188 0.9579743824371098 0.0 0.576259501223894 -5.686439005984535 0.0
304 2 10.30672982563286 17.927266143985825 0.0 8.011834375691299 -1.019710196856692 0.0
305 2 13.876772865763277 2.4755570358369696 0.0 0.6186127191326548 0.5115515832940565 0.0
306 2 5.8194432883205565 16.740971565461845 0.0 13.014526914953368 -2.738805857156667 0.0
307 2 16.019306715387092 8.424877622220995 0.0 -6.124282676691244 -1.717620285741834 0.0
308 1 16.572183905062644 12.770068793323365 0.0 0.23638070208178494 -7.250393876681846 0.0
309 2 6.910706041345672 14.029756287476529 0.0 -8.03146377492187 -1.354392913768718 0.0
310 1 6.611637378801606 4.799684522205971 0.0 2.1513009425481493 -0.4573074283535129 0.0
311 2 16.815550786252103 8.197784271197463 0.0 -5.22268373148629 -1.9696936780419652 0.0
312 1 19.590262585116555 17.404688018717238 0.0 -9.3231378195766 5.385248789149239 0.0
313 1 16.277218076918434 15.919055977409043 0.0 -2.6785755281563284 19.004292929370617 0.0
314 2 12.456090675032277 0.696372621922527 0.0 4.561570951776023 -1.7940725137076898 0.0
315 2 14.023864104081824 11.184168043675472 0.0 2.2233065951100555 0.3243230673729765 0.0
316 1 12.829713298927318 13.577875171930144 0.0 10.471493829593948 -1.350756177068923 0.0
317 2 14.589201742066761 4.119687514827367 0.0 2.686118591236457 9.996805396505712 0.0
318 2 1.236164086730678 10.226029170800949 0.0 -7.080052038923131 -3.0511722806392414 0.0
319 1 11.89639689174365 1.768764922894678 0.0 -6.289009027419168 11.600853606226286 0.0
320 2 19.41310075768779 10.769410129038258 0.0 2.2374434035679 3.4596830074997245 0.0
321 1 5.296268796494156 7.556121955192184 0.0 17.940266390510846 17.819213409680287 0.0
322 1 5.403595902310325 11.148580586704982 0.0 -2.9340914401360854 11.051343671443512 0.0
323 1 19.27766378755489 8.54389789337719 0.0 6.798574272730401 -1.06072510687055 0.0
324 2 6.616941111937084 12.839609548594227 0.0 11.893403123623445 -2.1984300944155923 0.0
325 1 5.26947213027906 9.206011218924033 0.0 -8.742568046357311 -2.166461445707984 0.0
326 1 17.224139196246313 1.093403947009058 0.0 -19.297857736383985 -1.790596810255101 0.0
327 2 15.755449581574268 12.677104088260075 0.0 0.2290418850541648 -2.513062174319678 0.0
328 1 12.276716673037653 6.015409549721659 0.0 10.413387218837626 17.114320724914734 0.0
329 1 11.547333908137142 10.062203960113573 0.0 -16.481116050848343 -4.520871702812529 0.0
330 2 15.09135040156943 1.535883366807169 0.0 4.110985210520941 -0.32976513658953677 0.0
331 2 14.446394180890378 3.3103928065850714 0.0 7.070132684013213 -2.3759532834672816 0.0
332 2 8.30176503226908 5.092472120574286 0.0 -1.6042721588146005 5.12617973268971 0.0
333 1 17.08791953705535 4.465612149859339 0.0 -8.179082309889163 -4.719656035091745 0.0
334 1 18.722354675352946 1.813385052724266 0.0 -1.3044262910226743 0.3843740302887686 0.0
335 1 7.765544802832083 15.356456002920432 0.0 -4.589386898677752 -11.259019729307392 0.0
336 1 9.037622124666646 14.72507315722543 0.0 -9.420732552925145 -6.7072043560803 0.0
337 2 0.057198393881365335 5.0238594037722715 0.0 10.117423984592353 11.613761830403643 0.0