ITEM: TIMESTEP
0
ITEM: NUMBER OF ATOMS
400
ITEM: BOX BOUNDS xy xz yz pp pp pp
0.0 19.7609 0.0
0.0 19.7609 0.0
0.0 10.0 0.0
ITEM: ATOMS id type x y z vx vy vz
1 1 3.3498654295376022 16.66263421306391 0.0 -11.36321824064673 3.4730889432741985 0.0
2 2 1.3576069132477095 8.17391029149572 0.0 6.211770643578374 15.046088719331072 0.0
3 1 4.113621867808298 4.677535008016137 0.0 -5.297420170203336 1.8916551980536116 0.0
4 1 5.055636654884681 10.337007740979196 0.0 -9.448843593150448 2.46981510740983 0.0
5 1 15.95367531510984 3.7069441665859193 0.0 -0.46229032785827306 6.676991259609655 0.0
6 2 8.595988893975083 11.635959897844875 0.0 8.913266356139314 -1.1240324755886852 0.0
7 2 10.425059040293046 9.468350677504759 0.0 -0.3614143485108376 2.4051573774355375 0.0
8 1 14.518988483509556 14.649812584244955 0.0 -7.162312980427549 5.916540277173468 0.0
9 2 0.7824653383974399 17.362289998593933 0.0 -8.727659932964928 -3.350794183991567 0.0
10 1 4.532622200939482 17.335045404239143 0.0 2.852989610586811 -9.748430735574487 0.0
11 2 10.499816833342317 1.7983391485962466 0.0 -11.238010408220685 -4.738268511670691 0.0
12 1 14.695279718244153 16.329973702799748 0.0 12.689498942043704 13.178124222776123 0.0
13 2 1.0061196905654834 0.194901421809296 0.0 3.633455215642237 10.940803401724892 0.0
14 2 2.7150977008688364 13.722392743203745 0.0 -6.977520283583939 -1.6697101674629982 0.0
15 2 7.582534506695156 1.2523870017082268 0.0 0.5073599057365797 -2.1088034841104073 0.0
16 1 7.8696454298880765 14.877819913243114 0.0 0.3684514980014455 -1.2314788198345423 0.0
17 1 15.583426122074505 14.20033950581336 0.0 -2.7244011610336414 -5.2317708946230645 0.0
18 2 7.663497938582976 10.572801930621102 0.0 0.6447406520564939 7.84651710154508 0.0
19 1 15.609968982083718 3.2002753969941287 0.0 -0.962212912410489 -18.945488446827053 0.0
20 1 8.749118014103889 0.8626304997450149 0.0 29.89606450899176 8.682670319473155 0.0
21 1 7.957260324190912 9.500934188624704 0.0 -2.2657103532906566 -2.1517382762819186 0.0
22 2 11.822180069064226 1.8646609530530471 0.0 -5.68117423130454 -0.8324836192215103 0.0
23 1 13.70739112431333 17.908720044844376 0.0 -0.6281241083213516 0.481624917754678 0.0
24 1 10.322962460425035 6.601846583896189 0.0 -6.490067009417435 -15.838480974858344 0.0
25 1 0.8013945790735227 14.806475824472042 0.0 2.2041629430533636 -4.867579477850341 0.0
26 1 9.536621048428103 19.494231340107085 0.0 15.243383582693927 6.365580495865342 0.0
27 1 16.602911598751597 2.728174197323602 0.0 0.04165778663808052 11.816465216768465 0.0
28 1 16.08608834580301 10.353566495549682 0.0 9.817130231252298 -5.611148868281231 0.0
29 2 18.23120980677962 16.304516860229015 0.0 -7.413883956810036 -4.919816017249126 0.0
30 1 9.519433412926361 17.729010939902995 0.0 -11.6299969906217 12.292710603181074 0.0
31 1 15.034777772387981 9.225264288332593 0.0 3.084719604449829 0.43157847765336693 0.0
32 2 8.025599348779293 12.509384288898532 0.0 -8.490434189757245 12.241660338649483 0.0
33 1 0.8848645207132778 6.704619686557228 0.0 4.254533170442249 -12.033269371348684 0.0
34 1 18.981322852278446 8.321131510592231 0.0 -5.4725635356436815 -6.988113478731819 0.0
35 1 16.18791659174476 11.426014625600596 0.0 -0.772080166637149 7.463215170056844 0.0
36 2 11.044436746387351 5.0714366597284455 0.0 7.432152850578321 -9.586957553812942 0.0
37 1 12.104471588534969 9.461784714104452 0.0 0.3132504750052381 1.0562349267725215 0.0
38 2 6.753480850960418 12.067697682240663 0.0 6.1879693243836495 -2.471494571641207 0.0
39 2 13.301793345403567 13.5051309192165 0.0 -4.784825609172873 5.866775086446159 0.0
40 1 14.565673615822641 10.64865139009373 0.0 -3.849546932020028 8.482867986562999 0.0
41 2 6.430071439860814 8.119125759971888 0.0 -0.993998491800484 -1.4890352238662137 0.0
42 1 14.170381236469751 2.396577386787524 0.0 -2.545118170623022 -4.1834845584669464 0.0
43 1 18.768802341806623 2.09031492765978 0.0 -10.190428704795826 -6.118051254239533 0.0
44 2 7.718689037274211 19.572788206989074 0.0 0.16108980460283254 -2.807000922671681 0.0
45 1 17.918929378863794 17.8881414622386 0.0 -1.5165080312743486 -6.841447650124755 0.0
46 1 8.518713793722204 0.21465167814974648 0.0 -5.88075188848075 -14.279228620243622 0.0
47 2 12.98758015324129 0.5472260025068729 0.0 7.059063058571766 2.944472970149612 0.0
48 2 10.908159287165931 17.5719688495045 0.0 2.438438152968282 0.44881768898048735 0.0
49 1 3.57235699637107 6.587987330613501 0.0 14.338822251632175 9.579358032275499 0.0
50 2 3.4916485827067736 10.602305531492313 0.0 -0.9174154901176106 -9.37298486272057 0.0
51 1 3.686997847376113 4.346315150839601 0.0 8.805098184652792 -16.989257886290204 0.0
52 2 7.879367172138967 3.4090569852729566 0.0 -0.09423780128224116 -0.143766513077723 0.0
53 2 17.39233328701518 12.40980040308237 0.0 -6.515730668292033 16.667677316187913 0.0
54 1 4.2092228336159225 6.992082931464787 0.0 -4.667365452607722 -11.171688480046239 0.0
55 1 10.641037483497556 12.113393837913256 0.0 -13.461466552540566 -11.958609955525299 0.0
56 1 14.616137899058865 11.072408090470278 0.0 2.5933465291285787 1.1805150663375488 0.0
57 1 0.09499900156929775 11.19122009519721 0.0 9.814803378996631 -8.064261518231186 0.0
58 2 15.831473952018548 9.562753612133072 0.0 -4.704643872630487 -1.0556479546659725 0.0
59 2 6.016427425228052 7.283802840846587 0.0 -0.4985427633961028 -8.028919187253495 0.0
60 1 5.349659653414826 17.548309267981942 0.0 -4.249539354327418 10.500025901812489 0.0
61 2 17.11309828268209 8.870235327117053 0.0 3.575812422112926 9.759758593953295 0.0
62 1 3.0893052937880343 18.59508596333543 0.0 24.081360898432855 -5.720653337482177 0.0
63 1 14.890355760443516 14.243613358068178 0.0 -15.96809734611692 -12.649172624698677 0.0
64 2 3.261501284379278 1.7505773865579655 0.0 9.131333901769416 -1.1496105392422236 0.0
65 1 0.4655890155146665 10.580128506342986 0.0 5.768983108367472 2.314255024062121 0.0
66 2 2.896707633195766 5.107367535572886 0.0 -7.1212935237709445 0.6154917611296657 0.0
67 1 12.679646864014906 10.324098237763922 0.0 15.58640815368505 3.230520782520497 0.0
68 2 18.233339465300773 7.171227141549231 0.0 -0.37653766111445774 -2.8608024948223814 0.0
69 2 1.3494619243138986 19.045737472737713 0.0 -1.7725244454861828 -11.748399757628865 0.0
70 1 3.7211675515009786 13.042603590872007 0.0 -11.25081736699159 -6.649433533164043 0.0
71 1 9.463564012810444 1.9729350626335647 0.0 -10.93193295282107 8.184975522759045 0.0
72 1 7.259191025330041 7.450675280525518 0.0 -13.344353570102413 -11.370154764735858 0.0
73 1 17.726131120450503 1.081561266209403 0.0 0.4741555416911509 9.556486027616234 0.0
74 1 2.306166076896933 3.3510333843512914 0.0 -5.652229460030684 -3.7371105416341726 0.0
75 2 1.2285769210939124 2.2172366645127592 0.0 2.206193107506244 -2.620914467839829 0.0
76 1 11.523672848604518 9.112867891434778 0.0 8.504292757948233 -10.765816610112436 0.0
77 1 4.874759641395079 1.0864494950820207 0.0 2.5598734451266325 14.165800155663318 0.0
78 2 16.865844382466616 6.754936504523195 0.0 9.014482387288348 -0.4844948130083126 0.0
79 1 3.930461465452373 7.7246028713447945 0.0 -26.45110932754558 -20.41113819816757 0.0
80 2 15.684183982649426 1.4583386973035621 0.0 1.2628957263272036 0.6143507162640992 0.0
81 1 4.055812006943379 18.298804972210007 0.0 -7.472393488935209 26.292917294004955 0.0
82 2 5.08694356703118 7.600642456828892 0.0 -2.4088414874611472 -5.356169149371789 0.0
83 1 9.707341184987555 18.650402462876492 0.0 -1.5450722356732618 -2.0716921332756493 0.0
84 2 4.699559473247369 3.293130205533513 0.0 1.249153676057317 4.012190794796803 0.0
85 1 16.627174363850102 1.171311984713869 0.0 18.580131316463817 1.0860487714520828 0.0
86 1 6.834799881744077 16.49015193817195 0.0 -0.7360247186936645 6.871989436206784 0.0
87 1 10.152471822457459 7.6807958869125645 0.0 3.582654187662459 1.4738506077131257 0.0
88 2 19.705615823002613 2.018528307439106 0.0 -7.760657500742971 0.13757637508495557 0.0
89 1 16.757133294565556 11.684100897490298 0.0 15.168461497225286 9.314162025035799 0.0
90 2 12.297386351930493 17.422120697361084 0.0 0.9631776465936583 4.069521740915651 0.0
91 2 5.586951981977092 3.0554018378736942 0.0 0.6719158586533093 -1.7855967785579603 0.0
92 1 17.80921380204493 0.5788773230242702 0.0 -10.719563493121385 -7.749659942166649 0.0
93 1 18.00010966765109 1.8911203002408676 0.0 0.3664921740235433 -12.525095900536519 0.0
94 1 9.512376699156931 7.238240633968616 0.0 -3.2198376072211126 1.6572279308912956 0.0
95 2 0.47468004339081654 3.6984721023493217 0.0 -2.398216808594081 -10.251311475700513 0.0
96 2 6.556813240952507 9.078879108538747 0.0 5.7561262288552495 -1.9479621529412487 0.0
97 1 16.872522759006895 0.6873287475235157 0.0 -4.6196448934463135 -0.1194421463889712 0.0
98 2 17.17361336771531 9.748467579659854 0.0 -9.000706886357257 -8.292279113142158 0.0
99 1 19.04903035086887 19.095662559729092 0.0 -7.735044471570857 -9.147461151886759 0.0
100 1 7.767926089528919 4.852568016191804 0.0 10.720184940144964 25.403792806021855 0.0
101 1 15.100478597385736 14.621802572184365 0.0 -0.12078064510892379 -1.9435562291471808 0.0
102 1 8.673017060066494 18.00051753807505 0.0 -4.915543898160039 -1.694844029316185 0.0
103 1 7.190050281989336 16.072874736244096 0.0 -2.912507688082734 1.2329892150009334 0.0
104 2 11.961676733999752 19.186239335882025 0.0 3.59797318496702 -6.689117947611698 0.0
105 1 0.20289480355175038 7.106718851376415 0.0 -6.208655923460596 -19.264241352847034 0.0
106 1 19.21249130229068 4.874981835532723 0.0 1.3758555277276323 3.7048408039278384 0.0
107 1 15.94569709042857 7.233885315522414 0.0 8.641134244642124 6.652395096463345 0.0
108 2 13.049571658043293 8.113242278647423 0.0 -2.4009551006821415 -2.2613386945422516 0.0
109 1 13.676090743877285 14.94752639676729 0.0 4.384870464472359 7.945078157997097 0.0
110 2 18.620353201465317 18.54955545610207 0.0 0.9245882216610073 -7.6917560613821685 0.0
111 1 17.49094613215425 4.715708119740412 0.0 15.391050717206552 -13.506269259622584 0.0
112 1 1.9103830376317088 4.129655352882861 0.0 -5.731607114186061 15.300663337400945 0.0
113 1 5.244638470160604 11.288512886615463 0.0 -7.728161112107261 -18.7315389512709 0.0
114 1 17.603604387218038 18.372615269731888 0.0 11.287082626583768 -15.32572595056748 0.0
115 1 17.18288354780366 3.3669968494699987 0.0 -0.6349350330202929 -3.240428956499908 0.0
116 2 12.537506825130912 14.489912614314552 0.0 -1.5051647789212679 -2.3795211217071626 0.0
117 2 6.060038470479303 11.51662126137228 0.0 13.507208458572046 6.632363964331465 0.0
118 1 4.293339073411385 6.1452806831281785 0.0 6.435507690323882 -5.449590513582064 0.0
119 1 5.582293320660531 9.641750684040762 0.0 -6.540997578106727 -3.2922273631806624 0.0
120 2 19.068546795688768 3.786832007574948 0.0 -4.576975592039708 10.555509212568852 0.0
121 2 4.073886684690499 12.038561216102028 0.0 11.982824821980646 5.4207652519628295 0.0
122 1 9.43593908113945 7.705070716100528 0.0 7.049727227415772 22.756623791090373 0.0
123 2 14.690246905438896 1.7095191007998658 0.0 5.73435173197416 8.218373416039531 0.0
124 2 12.348564891166044 5.538657168738668 0.0 3.176919429924964 2.1369316850581397 0.0
125 2 15.082676611587116 5.002644880353154 0.0 -3.8405304011110575 -5.020358991944995 0.0
126 2 9.231941595554499 13.417014603754074 0.0 2.834707186962256 3.1832007424246975 0.0
127 2 12.579876998825275 12.263087792269381 0.0 -2.214379914147296 12.888631266447543 0.0
128 2 0.19637272736680284 15.502357830565492 0.0 1.271621851683039 -2.2269247444711042 0.0
129 2 0.20011932553348263 8.150866121295156 0.0 -4.817844542122836 0.9171241663270121 0.0
130 1 8.29918680283341 18.634205607140437 0.0 2.336016450146627 -0.3493603154060556 0.0
131 1 19.482421115652656 9.107183269441217 0.0 -9.00851564411995 -5.573058373563499 0.0
132 1 3.761565756971021 3.4193765981495834 0.0 7.793919370998554 2.0387730517570843 0.0
133 2 13.986589318300835 17.07237773075242 0.0 11.912404194279954 3.9858987076237997 0.0
134 2 19.44834990012344 14.758408361321381 0.0 4.1663203334870795 2.8806340150532015 0.0
135 2 18.442890323455423 10.583295538973148 0.0 -4.324228849325931 4.721538337699658 0.0
136 1 10.438971747510548 18.615778309937983 0.0 4.238762491250534 -0.4412466671541015 0.0
137 2 19.249037363687332 10.264746392333802 0.0 -1.4462447686314643 3.3792718699557143 0.0
138 1 15.143626678275771 2.8684624501562177 0.0 4.8323334520207855 -7.01817547441944 0.0
139 1 16.698182502490482 18.095543552502384 0.0 -11.462449102586872 -8.322733853099402 0.0
140 2 10.308820119747933 15.371464451983934 0.0 0.48543645369124305 2.217541778143806 0.0
141 2 5.505046346912698 15.903250495087876 0.0 -8.462341753415073 -0.880681495900993 0.0
142 2 0.08291144721007909 0.7387495492250313 0.0 3.9613464544397177 -10.200919063942587 0.0
143 1 0.6809254183898763 18.57703652460908 0.0 -1.4084849426358501 -15.187349058607134 0.0
144 1 11.448586573817499 14.950044020696884 0.0 11.46954074451051 3.6292498211622544 0.0
145 1 18.065892923322142 11.390388006442496 0.0 -9.903632099440726 -11.55834039806647 0.0
146 2 14.932664740172196 0.8094649414116382 0.0 -5.620158802542119 7.5027817366591645 0.0
147 2 6.935885400005748 0.2971083459355162 0.0 2.077016144875012 3.284882631330305 0.0
148 2 4.136209245346242 14.737360431060788 0.0 2.311466559619697 -3.985489376347761 0.0
149 2 6.847554020907016 10.147680161122935 0.0 10.77143875318489 0.01871780890977676 0.0
150 2 4.595448780702477 9.58592146259092 0.0 2.525476198506965 -4.484056329599837 0.0
151 2 11.713140439753593 16.459473461158932 0.0 1.2071082285013433 -5.316292205494109 0.0
152 1 7.747819695781335 18.18701154924575 0.0 -8.28459880323362 -6.499615940203028 0.0
153 2 13.431484174242378 9.727619129721829 0.0 10.339981907336298 -13.900527036859874 0.0
154 2 11.76299568292499 11.659960991969989 0.0 -5.9606416253821495 -3.0161515692967575 0.0
155 1 10.725994958675932 14.391634314316882 0.0 -9.967213537826618 -6.179044538009929 0.0
156 1 1.8785358762417244 3.1692719504487825 0.0 8.17744810506308 -7.892383702854638 0.0
157 2 11.584630848188366 12.55281256172422 0.0 -11.81771577596143 0.43177183898121063 0.0
158 2 0.7749577004755882 9.590080596448121 0.0 9.33440031894876 -7.21560875306658 0.0
159 1 8.805831701139601 17.298805473378064 0.0 -1.4141183264642516 5.456619096609662 0.0
160 1 0.8841144725103981 13.360011729622714 0.0 -0.36554511895444186 2.3395496517173737 0.0
161 2 16.070480606618286 0.43624829908351737 0.0 -1.3909676713867787 -4.281724426893707 0.0
162 1 16.032607903602752 17.969195566817024 0.0 6.469089435534815 -1.9631483107889343 0.0
163 2 10.354855455723348 0.6476332007033235 0.0 9.885376733699886 2.6059185590262 0.0
164 1 1.5338404608742577 6.233325112294059 0.0 -2.657413556545336 0.5665976227651345 0.0
165 2 10.53173879053691 8.614442512781839 0.0 -6.817823166252894 -6.161250072661343 0.0
166 1 18.58038665292102 11.683217134352011 0.0 -6.853626947359785 -16.221262674286276 0.0
167 2 14.436474993806586 8.35877102855322 0.0 -5.02397112446597 -15.816350043264281 0.0
168 1 11.434727159666382 0.7599624412043668 0.0 9.840038057779951 0.1333851605530802 0.0
169 1 16.807243935113654 8.037591311600302 0.0 -8.515226796462668 11.570929985773374 0.0
170 1 1.6179095566640038 1.4825355274578231 0.0 -17.928767779824657 -11.376602232892695 0.0
171 1 9.339266820897507 18.405162161971273 0.0 6.668358669361954 16.37391743622606 0.0
172 1 18.96116824832382 1.1039431794275982 0.0 10.128853615587234 -2.7684647171958368 0.0
173 2 12.770134754489938 1.9972939043931213 0.0 -1.4224444089894135 -3.439417579762638 0.0
174 1 17.446586512730477 2.331582981399201 0.0 -3.1895627679497225 7.392959283876473 0.0
175 2 15.127500324476115 12.307620810910464 0.0 3.822205844531862 -3.261001010453546 0.0
176 2 18.642441950252838 9.425304590231125 0.0 -4.792713226370213 1.3172274025326132 0.0
177 1 15.662220520952081 11.370369793517034 0.0 -7.00178313778758 1.1357065356814384 0.0
178 1 8.982911200695558 6.566498415031115 0.0 -0.561609408142775 -0.8061796755601301 0.0
179 2 0.8367427814919423 12.37185346217911 0.0 -0.964725250063334 9.483129553278445 0.0
180 2 12.088532485208793 3.8283875564922307 0.0 -6.98647490023057 3.0681524626252785 0.0
181 1 0.37119531037372855 5.658618861165352 0.0 2.901394951561446 9.409399944499407 0.0
182 2 10.156723258780355 13.549658331465402 0.0 -4.979485704779263 16.27181673171341 0.0
183 1 12.621049830788905 18.595416561103075 0.0 -7.215897206565214 -21.39147835749041 0.0
184 1 9.718047661174621 4.816145478900236 0.0 6.62164943709136 -0.6620456835338671 0.0
185 1 5.3319819339224255 8.628915395774632 0.0 3.230477356705491 -18.37059166581972 0.0
186 1 1.7017290418265625 12.528683944877347 0.0 18.036781185053155 3.6492173899554725 0.0
187 1 12.090370974935983 10.023301038459048 0.0 0.7891241726172219 -2.6065388780777905 0.0
188 1 9.741502594732173 12.703395104984011 0.0 1.3658874573814648 -11.859285597515894 0.0
189 2 14.01411251379643 5.847574962633111 0.0 3.679598229677801 -10.770347510338299 0.0
190 1 10.068611746102173 16.741272689837835 0.0 -1.7447543090391728 -12.965119221615952 0.0
191 2 17.295307499044 16.827689099300834 0.0 1.44436343946059 1.7658526725455135 0.0
192 2 11.368843998217121 18.48217778642925 0.0 -1.6706626194248078 -0.21304630599340954 0.0
193 1 4.49892200180024 16.865326240956144 0.0 4.160584711889741 -8.422255318366604 0.0
194 1 14.11229913398283 11.620820826251462 0.0 6.280561992212807 11.317082290723299 0.0
195 2 8.623640269610576 10.64535888957014 0.0 3.186692191140729 7.006253963361125 0.0
196 1 3.0777455289528444 12.793979815131676 0.0 17.839990286191345 1.615512799686543 0.0
197 1 18.105368537931113 8.78168678053533 0.0 -11.230862425783796 -0.04816678581919897 0.0
198 2 6.322006134656007 17.447810681799282 0.0 -3.411197629536711 6.893870476653051 0.0
199 2 8.544172552315494 13.937059172394598 0.0 5.756389138093676 -8.924638127873243 0.0
200 1 7.390628072764837 9.590962603650883 0.0 -12.876513162727745 -2.3615744265507943 0.0
201 2 1.7579178667190725 13.9869368263677 0.0 -16.789577978373654 3.827335268007971 0.0
202 2 15.28936514005162 19.514420142047538 0.0 -3.873960159608054 -0.9266680577567112 0.0
203 2 2.3288777802163128 11.262985606162047 0.0 -3.1360251602603793 7.420893177654701 0.0
204 1 6.766975402592058 1.504394741469188 0.0 2.1091537987393805 -21.397060896641776 0.0
205 2 6.7652683501595305 6.815790280967206 0.0 -8.65377354786844 -2.667704430560892 0.0
206 1 4.285469898212599 16.012917200440555 0.0 -6.687881716495019 4.2248711275839765 0.0
207 1 6.384588745153227 10.681069805543466 0.0 -1.8049569632975777 16.199920721463343 0.0
208 2 9.617767268943414 14.760140683042497 0.0 -3.4362678355631884 9.27714250571443 0.0
209 1 1.5591795661673717 11.935908794789494 0.0 -3.222895177219655 10.77474231503124 0.0
210 1 17.07224047918192 0.2871253639071065 0.0 -13.97488479713628 6.169844196250173 0.0
211 1 5.112530796128459 6.096385745803407 0.0 3.0858547994939323 -5.812815911522874 0.0
212 1 19.1609961475472 13.345060668396277 0.0 -5.516481481567056 10.216584732291379 0.0
213 2 4.540555858544175 19.334188488732917 0.0 3.2782444422244175 3.643697202082044 0.0
214 1 16.056186828385385 13.842404275840048 0.0 -2.024329833859958 -2.62633663230115 0.0
215 1 0.33047318164285555 16.56194865925848 0.0 -12.036949630238498 7.810223486120246 0.0
216 1 18.351019971080163 1.4269460237340146 0.0 -0.9008820089102828 -11.196438428995663 0.0
217 1 5.497556935389476 14.698773908999096 0.0 4.070402539101754 -12.114645372088521 0.0
218 1 19.700927590002518 12.360834222666591 0.0 3.834702732346799 8.441955003234966 0.0
219 1 1.33281453814146 3.611390363085868 0.0 -0.1495235046264931 6.5300629324604405 0.0
220 1 17.196887028155704 14.112049535465166 0.0 25.130715803357372 17.802502141808734 0.0
221 2 2.1029588539329533 16.179592154653037 0.0 8.006224827813881 -1.763892799747414 0.0
222 2 0.31897563755031694 19.421265723521525 0.0 -2.807513754591477 2.988446779349054 0.0
223 1 17.93872314841882 13.113799861700974 0.0 7.292251201297587 -4.124382469852243 0.0
224 1 15.134359277659517 3.743323543847625 0.0 -4.769060434888437 -3.1920617451788016 0.0
225 1 4.490109140058706 15.384710201306559 0.0 10.336139938899185 -2.0814526128712285 0.0
226 1 17.559115061450917 17.539632528938206 0.0 -2.2393705757266877 14.039552414209687 0.0
227 1 12.413880193739747 9.013612186356493 0.0 -18.6393239626693 0.5246796438241673 0.0
228 1 18.675479267625377 4.808060793262882 0.0 -12.800746413295277 4.370824099843874 0.0
229 2 9.867058480939347 11.376645761557205 0.0 11.365138043483213 0.04964167109678195 0.0
230 1 13.210398558991457 3.9929978603367946 0.0 -7.246081951568881 -7.761425653050689 0.0
231 1 8.161420287836007 15.960071915860587 0.0 -12.755607415431088 -5.926775075398558 0.0
232 2 6.51894247642602 19.17775800638206 0.0 6.749703920057346 3.8735442001426845 0.0
233 2 19.210791966248376 16.25485794794048 0.0 -5.912424538506877 -6.276053716598297 0.0
234 1 17.335723074071 5.725445180669561 0.0 7.849364325258925 0.7226385247780891 0.0
235 1 2.4224999383113603 4.240892167836983 0.0 -4.201597988721605 5.829350281836109 0.0
236 1 8.578439373057062 5.5151151870466215 0.0 -13.257708661651325 -5.451708060607429 0.0
237 2 6.662529502219504 3.524986278575148 0.0 -2.27826414803813 -2.6235675483360397 0.0
238 2 14.358832454422185 9.571616935701172 0.0 -13.051104295954863 6.954220905893871 0.0
239 1 9.72087111947311 12.0908022681733 0.0 -0.6199972331292656 20.53026887507658 0.0
240 1 18.597958786764252 19.677021801000716 0.0 2.471926723373521 -12.096877696690974 0.0
241 1 1.1921756383630016 10.926272174364154 0.0 -3.7636323459442385 7.14782151573906 0.0
242 2 17.045066042580135 19.103584357054388 0.0 11.29679352081421 -3.540765823333373 0.0
243 1 9.060843878586985 7.128965184255438 0.0 5.488351841109303 5.9681538146231565 0.0
244 2 1.2272909602316087 5.176023474249279 0.0 6.031865888305488 4.51442336706196 0.0
245 2 2.754732611850795 17.216003090779243 0.0 1.070526542894961 6.572936179489217 0.0
246 2 16.19858693833692 6.059034109663394 0.0 2.537849850527618 2.96150587603372 0.0
247 1 0.9847346087618538 16.611324728904098 0.0 20.781375514640253 0.10815891363023399 0.0
248 2 0.34781452132191065 2.742364277846264 0.0 5.220207172834801 10.355887825007217 0.0
249 2 8.899905336529532 15.091616531540762 0.0 -6.955883176567221 -0.7624245410650806 0.0
250 2 19.46262639459853 18.07708893513392 0.0 7.262117543352399 7.1256514126360635 0.0
251 1 5.653076267318823 19.082243140017205 0.0 -13.560173366078446 -10.932437178663504 0.0
252 2 7.611664753298812 13.798738710600922 0.0 8.02922060651536 -2.3308150865755066 0.0
253 1 11.62645900092613 15.65208264927515 0.0 0.13476719142928953 3.802249338467673 0.0
254 1 9.798432118254128 3.504468770136401 0.0 -11.74093390044115 16.045530347866354 0.0
255 1 12.01949611741718 0.3079855468625951 0.0 10.372150011449218 1.890711166395361 0.0
256 2 5.382559416167305 0.4782847771916079 0.0 13.877823205681121 -3.0492865069884614 0.0
257 1 17.92257637000987 19.28047911149673 0.0 10.20435721432538 -14.57719841075575 0.0
258 2 11.204195007675894 3.9605160700102138 0.0 -2.499257099290267 3.640862522778572 0.0
259 2 7.971895708089559 17.204741916037147 0.0 2.451100673943143 3.517178853204695 0.0
260 2 5.120395238040774 12.87040360753563 0.0 0.9151948892781513 4.22429544495041 0.0
261 2 0.20494030062913232 4.853987488611187 0.0 -2.3177926297348224 0.33859336121354106 0.0
262 1 12.257996529455237 13.704391102437596 0.0 6.350205607352411 -10.508109602641293 0.0
263 2 2.767034399795709 0.5511937712876329 0.0 -3.8382896600483747 7.3788464796572635 0.0
264 2 2.4047384843420474 1.7489983699460314 0.0 3.8580672366118454 4.771268179650052 0.0
265 1 12.02599607790562 13.245059328150678 0.0 -17.061986498118376 0.3926879651243609 0.0
266 2 14.638430342401822 17.743870834600752 0.0 -0.14874355167486927 3.9150265989314823 0.0
267 2 2.315935703893668 7.832190907699161 0.0 8.917144720664165 7.357096450831198 0.0
268 1 3.9396859433678846 15.508863515782103 0.0 -4.274139300418575 2.658061359426002 0.0
269 2 6.341367803945284 15.226246171056541 0.0 -12.235952447438002 0.2534400012754594 0.0
270 2 6.13853959305382 5.16729838284853 0.0 1.2517048854290893 -8.25908378968817 0.0
271 2 16.494539724074137 15.917797253497849 0.0 12.619839140994038 7.433095050901998 0.0
272 1 13.91622570358742 3.8507839004134623 0.0 8.641603168523417 -8.515887114368345 0.0
273 2 1.5383320659998143 7.082073971049045 0.0 9.309797903412791 -5.808456854723425 0.0
274 2 13.393916345359198 7.232559996394084 0.0 -1.4514603252062763 2.4793094738215706 0.0
275 1 4.406123737256171 17.969251038757946 0.0 3.1536166345406134 -5.435745012354065 0.0
276 1 11.920360739978301 6.620158028956879 0.0 0.4358176236681792 -4.730842597818811 0.0
277 1 8.653049359629478 3.3967711231745854 0.0 0.4968464560535545 -3.091926236136935 0.0
278 2 5.234655426792673 4.597948425860618 0.0 -8.513035428528564 3.469411276771031 0.0
279 1 15.561184418498712 7.8092966877907335 0.0 8.873966793231771 7.550913557252257 0.0
280 2 1.097013791657811 15.649570711836526 0.0 1.7585458167806394 8.128252340501747 0.0
281 2 2.2194740922578386 5.61470926436693 0.0 3.5859750080857173 -10.095327198761929 0.0
282 1 0.4137431964035358 13.084156106239268 0.0 15.507661908333002 6.131889565001444 0.0
283 2 3.9898772668435103 2.5441837748194995 0.0 19.872588189148157 -11.610716634993043 0.0
284 2 18.74415120358332 16.960309611729503 0.0 -4.2030521451366365 0.3256633373487571 0.0
285 2 3.1494529982522974 2.7443015154363897 0.0 -1.8740812326285974 -2.9533028666769523 0.0
286 2 16.679596172147967 13.271242023646002 0.0 -3.1274782041094316 -3.5021843116332394 0.0
287 1 11.025917968812731 1.0890301312040622 0.0 -2.1001182009320276 1.204849120963605 0.0
288 1 6.817704310444706 11.064542326516746 0.0 8.38767227938208 15.334793786595272 0.0
289 1 19.08425079416704 0.49811888623321193 0.0 11.162847524106343 -7.725960005267818 0.0
290 1 19.352347891339683 0.06191057337496393 0.0 10.88793015236368 20.93799786188865 0.0
291 1 4.98625286608638 15.271728615334847 0.0 0.34742368659393497 -10.10620228144355 0.0
292 2 4.7508760409403 14.189834746611115 0.0 0.23137997192567314 -0.5762047357245687 0.0
293 1 5.389786062300193 5.722453818011375 0.0 16.955641922245757 -1.9634528999233638 0.0
294 1 10.330368446175973 12.743752242875258 0.0 -8.056488536576179 12.449606917605218 0.0
295 1 19.12374274313433 6.653529836594586 0.0 3.5678029857486426 -4.432015534993495 0.0
296 1 17.053797096944 1.2793540162204229 0.0 -15.767191101143807 1.4219717371435707 0.0
297 1 12.568715104564372 3.128675630211837 0.0 -4.330968172613304 -6.325480181198473 0.0
298 1 9.928726519926 19.131346826826263 0.0 -5.3604789483858815 20.983861477338056 0.0
299 2 13.640572349880992 10.59520759911434 0.0 -0.0691239886888696 5.339660539862956 0.0
300 2 10.381074409229518 2.811733391292238 0.0 -0.8380152913848714 -11.959117853982129 0.0
301 2 16.290077578629408 8.696903416302334 0.0 -1.7171886921825472 2.5763833257408084 0.0
302 2 6.657814269042556 5.837730134380347 0.0 3.7126445860708444 1.6499102891196877 0.0
303 2 18.098668742036992 4.019713579595701 0.0 5.420623782816191 2.982022504522362 0.0
304 2 12.68571132437736 16.540243224520754 0.0 0.7155726754805448 3.067546243012959 0.0
305 2 3.0719327576609397 11.738922119638694 0.0 12.444680279255653 -7.986626736128699 0.0
306 2 18.127439527214776 5.838658891465797 0.0 2.106332528120643 0.1663136753668934 0.0
307 2 4.27835730004271 1.7384854162534762 0.0 4.059650946615289 8.866407392953699 0.0
308 1 18.73569698014753 12.51961898305711 0.0 1.9839380462298617 -1.1016022369203744 0.0
309 2 15.60898991957007 16.646312757147772 0.0 9.721992327641097 13.422236023752845 0.0
310 1 12.8436225021038 3.6111986412615082 0.0 -8.060322654850106 6.943528132169564 0.0
311 2 16.341624405483227 15.010515021573767 0.0 4.8318410592759165 -3.3963325737640426 0.0
312 1 13.781865882647828 0.03785685960647823 0.0 -0.8774102662126497 -9.2454422584215 0.0
313 1 18.59652962608584 15.399185949682408 0.0 -11.929615410437933 -14.835104599581385 0.0
314 2 18.144235480535897 14.774462155532948 0.0 9.27159219959944 10.673231354936306 0.0
315 2 12.849133557655337 6.4970385478472 0.0 2.460093177690162 -3.661228853919298 0.0
316 1 14.369368981439289 4.465874875858934 0.0 2.0461512414664993 9.884617031403925 0.0
317 2 12.720328794173179 11.307920905100321 0.0 -0.030082368827087338 -5.992205868169539 0.0
318 2 6.92654560154951 4.5379754040113545 0.0 4.853755686774518 9.30526588886203 0.0
319 1 18.385931903761225 0.8574829872967288 0.0 -1.8779938234520146 5.7976076958107186 0.0
320 2 11.982955012609473 7.701597395906527 0.0 -0.8673314622451412 -9.263502766719094 0.0
321 1 16.390826560695523 3.2911457881433615 0.0 3.968450850994341 -4.20795542632815 0.0
322 1 17.05461673369857 4.138773624701092 0.0 -7.744477565748127 -8.661710683919638 0.0
323 1 15.389572479048686 8.639554196304658 0.0 0.38618725478467103 -10.34722289368764 0.0
324 2 8.207561839432294 1.9556223706508105 0.0 -4.578338529896398 18.676318641502668 0.0
325 1 7.438765008596645 8.508479597408423 0.0 13.94366473269323 -9.979478830682998 0.0
326 1 13.586984445317293 12.009324095771749 0.0 16.14494230136406 2.0146512315788714 0.0
327 2 14.700897470082896 7.1196209098724275 0.0 -9.132750167280326 -5.5355358893861695 0.0
328 1 13.836265775758031 14.312012556459749 0.0 -12.243115441886093 3.2653159799654157 0.0
329 1 7.3702417634457635 14.783388130584747 0.0 -1.6259057659473242 1.8998301715820487 0.0
330 2 11.345187583449658 3.125241969117364 0.0 -3.106140294526039 -0.3042168874920456 0.0
331 2 8.336601186651379 4.1963053666618695 0.0 -5.590020935906772 -8.898831715317732 0.0
332 2 7.590469110085997 11.818778160878415 0.0 -4.263272277256805 4.898696850611086 0.0
333 1 18.09593903537968 0.06526487767041837 0.0 3.4294734926973027 0.8728837684786962 0.0
334 1 1.1963725675550683 1.2658288853846544 0.0 -3.308137420567373 6.272422868268922 0.0
335 1 3.095530604071742 18.04184608096276 0.0 4.4515367559449635 -3.442722966875515 0.0
336 1 19.30013544468888 11.221401615201351 0.0 -14.679254114494896 -10.587076390484023 0.0