ITEM: TIMESTEP
0
ITEM: NUMBER OF ATOMS
400
ITEM: BOX BOUNDS xy xz yz pp pp pp
0.0 19.7609 0.0
0.0 19.7609 0.0
0.0 10.0 0.0
ITEM: ATOMS id type x y z vx vy vz
1 1 4.464526143644823 13.225912252743443 0.0 -0.5697752283394937 -4.132408745687492 0.0
2 2 6.739581939441672 5.918990412205323 0.0 -2.446669848902069 -0.008064874416885937 0.0
3 1 8.58580653652765 7.660513785519417 0.0 18.342158027888754 -15.248764513984401 0.0
4 1 16.11655609401306 5.898465478477858 0.0 13.636551891402073 -0.5073005310608637 0.0
5 1 0.40487641486283393 12.139557947624093 0.0 -8.963104768720038 -5.911929276362153 0.0
6 2 1.1559211849912978 10.996728748544976 0.0 2.54629111130696 -9.441657625093644 0.0
7 2 0.7809416340325789 16.514057261631116 0.0 -3.220710381438062 -17.099468909020704 0.0
8 1 8.684616853181398 3.558624284705871 0.0 -7.484892341164629 -10.77575544753349 0.0
9 2 7.555077838900543 16.375359763576732 0.0 1.04583895427659 -7.886404510038567 0.0
10 1 3.0404607200988236 1.7230908923214807 0.0 -11.577757027173627 3.2151922327772127 0.0
11 2 17.837248163950147 14.099047992157777 0.0 -17.407176465008064 1.5766474392795455 0.0
12 1 18.348207895930425 19.67370703518826 0.0 14.026502773380006 -3.576840440399467 0.0
13 2 14.31660241109898 3.139489190861699 0.0 -7.693508290690868 -10.699088350304319 0.0
14 2 15.053088672165387 1.7628205094541445 0.0 0.9911858196577639 -1.4979966710005017 0.0
15 2 5.12084678812034 14.752671378861418 0.0 4.10051027768877 -3.9974657713293182 0.0
16 1 15.364040232510124 7.179094659831958 0.0 3.518693859434515 -1.9362730125608973 0.0
17 1 17.41251891238078 2.3484012689399956 0.0 5.005014344995114 -13.536727969896267 0.0
18 2 15.723758717965898 18.435362260021254 0.0 -0.9426737191474388 0.6513721430814975 0.0
19 1 12.729610902003413 2.898060611658949 0.0 -2.9022340861805964 9.087715207293629 0.0
20 1 3.0873506926001824 3.6683655608717145 0.0 5.032046075240805 8.259914866049892 0.0
21 1 14.665681533453922 11.147625039459307 0.0 -4.824296034550423 -17.87164360692911 0.0
22 2 14.498500823087747 9.853347803390335 0.0 -5.005988504540441 6.052235329794442 0.0
23 1 7.010312549279224 5.085348248295897 0.0 -4.917919999993487 14.773619937333702 0.0
24 1 7.883247908264918 10.419190371638383 0.0 -0.4922566816829096 -18.318937032391137 0.0
25 1 11.47055171177312 0.33550772513889254 0.0 8.415055969346273 2.3829436616495867 0.0
26 1 9.279096549742565 1.7660420281640312 0.0 -1.4444591195856173 0.8551069759286061 0.0
27 1 15.40153893343556 9.8726066721912 0.0 3.8655916678618976 -7.277048589945011 0.0
28 1 13.617755068963737 19.755091985719705 0.0 -8.961643531762359 -12.335599000338629 0.0
29 2 18.795619776620143 16.88322492124422 0.0 -3.300278395631154 4.256444499951109 0.0
30 1 9.624143534607306 3.9492950219646525 0.0 1.8121347139520172 0.8032405884848505 0.0
31 1 12.356906301089102 12.280820332031338 0.0 -6.1661964251339185 -4.774077192274143 0.0
32 2 13.706081420937357 2.5559337395511577 0.0 6.969501963012509 -0.43761651854571504 0.0
33 1 13.189787035884242 13.453204421650648 0.0 -7.917352844581276 2.3867113034755265 0.0
34 1 4.94097289558022 3.3585063805235293 0.0 -3.9666443298932013 0.7577061912363537 0.0
35 1 5.966830818446963 11.379520584146809 0.0 -15.939433926517626 6.596588069131874 0.0
36 2 10.957509576633296 12.409418829824446 0.0 -3.8586424589814268 -2.444100839494302 0.0
37 1 5.834356474510085 6.663051704785459 0.0 -9.607552008816374 0.9565693271061835 0.0
38 2 7.130938434957413 7.5614070747966 0.0 -8.425416713807735 -1.8151357217669246 0.0
39 2 5.159092533727979 19.449603018467307 0.0 3.620826238058851 8.642023786141085 0.0
40 1 18.937244412731985 11.380243716148223 0.0 -10.559362621923198 12.346972069248675 0.0
41 2 2.333781832168209 3.2867502713600483 0.0 -4.549005763709598 -1.515415049727598 0.0
42 1 19.701822911985342 4.8372620287264665 0.0 -4.128359621036865 -2.6837256573473067 0.0
43 1 1.6413433039701664 7.495641918078527 0.0 15.675194652808324 0.8947724031482889 0.0
44 2 16.496186908274716 3.748778425770537 0.0 -8.155130356808609 5.863166173667621 0.0
45 1 10.154445119590775 6.965632633046478 0.0 -8.419177347079225 5.153795197954372 0.0
46 1 14.216081445419315 15.127832597801842 0.0 0.901524778314391 4.271845721981187 0.0
47 2 4.802416955031455 9.48697531084801 0.0 -4.643182325452377 -5.491374827514892 0.0
48 2 12.98165317525723 5.492783466668009 0.0 1.273614346718431 10.483319499757219 0.0
49 1 0.29302025404204024 3.1691478832088897 0.0 -15.161798358324974 -12.0122266240064 0.0
50 2 3.542502066362112 9.078051629317876 0.0 -4.154451456345609 3.76883712664766 0.0
51 1 12.691234243437071 2.2585950250817817 0.0 6.46404779409269 2.349305519074321 0.0
52 2 15.162489326012144 12.730325580761855 0.0 4.844990030425508 -4.6318385558120205 0.0
53 2 6.094988033727635 7.813341886146153 0.0 8.21596038637045 12.466621678304334 0.0
54 1 10.367546469820791 5.971655848560211 0.0 4.219811813767032 -10.794938385509726 0.0
55 1 12.670123182819115 4.522932344335443 0.0 -5.6997396103528795 -6.409853699559648 0.0
56 1 4.04418394068214 17.75742198889207 0.0 13.307521502352268 25.473442375430174 0.0
57 1 9.339242143209226 5.4170622530353985 0.0 -20.36420471614102 19.40751651701092 0.0
58 2 16.275315798839024 1.1625170557150408 0.0 1.004756933298129 -10.979748038347239 0.0
59 2 9.046665870391813 16.624962353277045 0.0 3.683166681439885 2.70245256071821 0.0
60 1 7.612347677550918 5.404813932805232 0.0 -9.492357091491884 11.925607877055237 0.0
61 2 11.51221821330421 2.4015158397947034 0.0 3.998290061039124 -7.85290995106927 0.0
62 1 9.55022192755291 8.759294208262114 0.0 -25.847149176675774 -14.400190577018511 0.0
63 1 9.446752591177862 0.23803266588513153 0.0 -0.160979475717566 17.508775042329912 0.0
64 2 6.299944278792921 14.355267360801992 0.0 -1.8128322997779118 3.955146095651801 0.0
65 1 4.902082763095249 1.4076514717246638 0.0 5.337083467797856 14.216004753869372 0.0
66 2 11.71726812904264 5.392988055059237 0.0 -13.807422594693511 -3.6532802516214176 0.0
67 1 14.912019945775286 14.90162535964618 0.0 0.3389519291404988 0.017906216223047375 0.0
68 2 16.651357522770365 14.316346204647825 0.0 -8.99326474359626 -4.174339701453557 0.0
69 2 18.40452104006739 15.948588038493536 0.0 -5.109057115915625 3.5294881690083684 0.0
70 1 1.6835962667205615 3.7950616204645957 0.0 -12.741125144382965 2.0292295326465317 0.0
71 1 17.32371821391681 0.5423124955634872 0.0 -3.0388797588294456 8.70840749033906 0.0
72 1 7.759916983585076 11.79758986242371 0.0 -5.692692714510429 1.8261164484934702 0.0
73 1 13.161743815137218 14.107166302529953 0.0 -5.624395057782453 13.010282868830284 0.0
74 1 15.638375582536147 16.917012093972293 0.0 15.474910764022681 -11.036682717118675 0.0
75 2 9.240892945840022 15.726234887690314 0.0 -5.3751889993125594 -12.920322122694715 0.0
76 1 12.358963218822538 3.6542649650783736 0.0 13.455647733846503 -24.668046936979493 0.0
77 1 9.701947739470823 5.756468816394141 0.0 4.197473149379792 -4.3582079412052 0.0
78 2 17.738568474482157 9.249254127188431 0.0 -1.4602133726579147 -4.67727121539508 0.0
79 1 17.365580496384293 4.497125420945718 0.0 -2.3239864432666635 -3.5633698294344343 0.0
80 2 9.363239721578669 13.87783873322058 0.0 -6.663613333007819 1.0517351272833904 0.0
81 1 9.299805139691152 9.986991598892748 0.0 -6.5818187456400885 13.35594426076085 0.0
82 2 2.497496143698282 4.152627968492136 0.0 -5.7692230087022285 -4.822211126118061 0.0
83 1 8.12866929191051 6.138777224505544 0.0 -8.530772481912475 -13.570787349390313 0.0
84 2 0.6901314402194358 2.237368843611764 0.0 8.027506900789316 2.755367860653824 0.0
85 1 2.886377493675768 0.5495746988611405 0.0 14.719462658410814 5.237777136901257 0.0
86 1 19.757815111673462 19.26250996948916 0.0 -11.472625583586067 2.5344760214922 0.0
87 1 10.956189399878369 3.0263750180823434 0.0 -4.987771343976329 11.416704424660335 0.0
88 2 19.2245558812425 14.11981946766547 0.0 0.944013898321713 -5.620728435404497 0.0
89 1 17.390011531830034 1.3072174612464473 0.0 -6.260171845528493 13.095787562733658 0.0
90 2 18.51403575570951 14.814334430459189 0.0 -2.821307945654024 -3.6110934107764168 0.0
91 2 19.02794223100424 9.37777391402239 0.0 14.328079341321583 3.377315605273257 0.0
92 1 10.30396630834964 8.638165127486891 0.0 1.035451121040029 -6.514979794434877 0.0
93 1 13.854496718655271 8.296056767323407 0.0 -10.001315316962046 11.544898018473138 0.0
94 1 3.6081425265285962 13.56021335794849 0.0 10.845177820296822 -18.924898240031403 0.0
95 2 17.328971594583845 18.703217497737164 0.0 -3.255964854344742 5.159096463863875 0.0
96 2 18.08527656607054 11.639755978110312 0.0 -1.8676536033187263 -3.3956963378724874 0.0
97 1 12.293880614728273 0.05718349395411529 0.0 -6.478873343121185 -10.132794233329028 0.0
98 2 18.568523094011127 13.189685390046604 0.0 -4.81378995773854 -2.484612450110768 0.0
99 1 4.365958009119305 16.584640725908216 0.0 -5.146156005525902 7.264856230432012 0.0
100 1 4.192705171186508 5.03134401944614 0.0 11.845846295705252 -6.063574658080516 0.0
101 1 15.107464123299925 17.694781966287582 0.0 5.590923739926879 -4.413461486658109 0.0
102 1 7.007941393574639 2.181249395897988 0.0 -6.0548494249933285 6.4955629719014585 0.0
103 1 1.945405915081899 11.055684368729597 0.0 11.16865157846434 -2.207623189753063 0.0
104 2 10.382960980262908 9.564482125735992 0.0 2.4555375992686668 2.9236590562157456 0.0
105 1 3.554902198991685 12.176361857569297 0.0 -0.5227189244977474 10.944143770320954 0.0
106 1 6.653857733731643 6.862733050375313 0.0 -10.087261598002069 5.697326330633482 0.0
107 1 4.387164076150692 17.143224558045755 0.0 -2.4815509912765266 11.323395892251277 0.0
108 2 7.822339612674422 0.6523467311802222 0.0 12.47945652653483 8.864392857403844 0.0
109 1 8.539431700414154 12.43221077562314 0.0 -4.542242544862378 12.43998256280922 0.0
110 2 11.401850923860222 18.154399893357628 0.0 2.0278516914126685 4.235685925627456 0.0
111 1 2.599115283737734 16.93717410023376 0.0 1.4230767979108248 -2.2309296974403225 0.0
112 1 7.962866556526769 7.966423004638607 0.0 -0.22943497608815058 -5.912971434846496 0.0
113 1 11.861626515350608 3.472213768940473 0.0 15.24615910503143 4.985360073751683 0.0
114 1 7.975629150777229 6.658295535591368 0.0 13.694519425381756 -20.596300257911118 0.0
115 1 6.2222943125937915 4.139497367828073 0.0 13.346386731952611 1.8438177216671892 0.0
116 2 0.8666786068708177 8.021407558546322 0.0 6.7805951575108026 -3.165555689355112 0.0
117 2 2.9647702606811777 2.7019775809774185 0.0 1.5491565008146662 3.387314359010013 0.0
118 1 17.326524991077886 12.239398920127927 0.0 7.103242345276654 9.244135656434285 0.0
119 1 3.6674328002678425 16.904436961288308 0.0 -28.452435832884852 5.073808901594618 0.0
120 2 7.274209292289048 13.242533476046013 0.0 4.188798058139364 -2.383838427225731 0.0
121 2 15.636803656513152 4.61855765819622 0.0 9.01033277401225 -10.566622797696319 0.0
122 1 17.886595241598332 7.824991881561738 0.0 15.330222035554531 -0.41490729568756946 0.0
123 2 0.7354873652237891 3.9223579920781786 0.0 12.545691515149654 -6.460528503623305 0.0
124 2 16.09087826338407 17.744011529554093 0.0 -6.975236909098565 -14.629472533149006 0.0
125 2 15.268216340216261 2.5487100969229632 0.0 -9.614853811178428 12.24771883099689 0.0
126 2 13.200086967563628 11.67741670398807 0.0 6.649834928568372 -9.829036700172262 0.0
127 2 3.8123616362899315 2.4069330929078925 0.0 7.667159962511968 1.9562971250733747 0.0
128 2 5.430828659367062 4.054282918680554 0.0 10.03332846967631 1.1634870888433435 0.0
129 2 12.112251127084063 9.542002462229993 0.0 1.6723843265771257 -6.225277883447821 0.0
130 1 16.036431026850988 13.245848381228326 0.0 11.648100541840696 -23.996287880650925 0.0
131 1 17.956218855701024 7.241454629928322 0.0 -6.516929082226719 -1.3400349984326867 0.0
132 1 4.32583036272673 1.5646858050246435 0.0 0.06917118199300978 2.241399222047662 0.0
133 2 17.244753336319103 10.552084561073045 0.0 0.7510382679847623 0.7091595503268958 0.0
134 2 12.147493362939581 6.12152955324969 0.0 -5.862484552941804 1.1728890675092731 0.0
135 2 6.590495981114635 11.023657830346805 0.0 1.555612214048323 -7.306157591875409 0.0
136 1 8.872282813321258 9.216960879102647 0.0 -0.9446917869042281 -11.65792524676881 0.0
137 2 5.89423061870527 5.132874595892644 0.0 -3.8379284122143615 -6.430875219640676 0.0
138 1 14.388954737242232 17.80213064312298 0.0 -19.357546999349843 -1.8109618978189277 0.0
139 1 10.527209398821228 2.345881531136037 0.0 -1.8117425387244706 4.358950558258214 0.0
140 2 2.297469927845037 19.346838744350293 0.0 -2.6473670052043685 -8.100962947416134 0.0
141 2 18.98156508209038 12.334383512492439 0.0 3.04607692811221 7.386009695420183 0.0
142 2 15.117416292196923 3.8280326634359674 0.0 4.147730698309112 -12.351417679298791 0.0
143 1 18.031137298797834 8.427384451036415 0.0 7.738929097331779 -8.40827395199427 0.0
144 1 4.238905384601496 15.034590721552135 0.0 4.857046014084166 -16.6089687104094 0.0
145 1 5.743394176585672 11.956151603642214 0.0 6.501570332557996 15.171835348725972 0.0
146 2 4.8301711892517165 8.480975490055275 0.0 -1.2342045608752623 -4.29235448487687 0.0
147 2 5.227149995620158 2.159781651030755 0.0 -15.668057733651539 9.966617990565714 0.0
148 2 11.179539626337437 19.156781286743627 0.0 -5.206859162488425 2.144817059740816 0.0
149 2 6.950039821255133 1.2399354211846056 0.0 -3.1401520021852805 1.9882973785727491 0.0
150 2 8.447932715843251 1.1493758629608677 0.0 6.671431987382243 -13.03688678525582 0.0
151 2 17.476396136327438 15.217270023791151 0.0 1.3322043229158687 -1.3133886169558655 0.0
152 1 18.01567146950317 18.092642416364132 0.0 -10.852327993090972 -3.1505589422973737 0.0
153 2 0.8934708757171193 14.126348469924894 0.0 -6.927835802160081 8.650489517674412 0.0
154 2 3.086788415132519 19.48040478762758 0.0 -2.344333823432289 -2.830300692605579 0.0
155 1 7.094996455890682 0.25712922851307846 0.0 4.227228785698778 -13.695010543170275 0.0
156 1 12.183151652152727 17.509615730091966 0.0 -20.022462263347013 -3.9280350794121572 0.0
157 2 1.8120477123311123 1.1555086987994094 0.0 -2.672558836482987 2.1940737454609422 0.0
158 2 6.979214892848555 8.602916980792564 0.0 5.568882582073762 -2.7359901053449542 0.0
159 1 13.907008956480215 8.902609537425747 0.0 5.477632951354278 9.62761289178855 0.0
160 1 18.080535492304044 12.444136478188797 0.0 12.273484823837899 -7.095877146008416 0.0
161 2 11.070837259071373 15.108675300610619 0.0 -3.293111018006612 12.825205431966072 0.0
162 1 13.768664672708702 15.12455015439387 0.0 -1.0666183658610704 -9.179442283662402 0.0
163 2 19.376124417142066 4.005737812902149 0.0 5.064539234231845 -5.686103524349257 0.0
164 1 19.625416619406757 15.070897167089448 0.0 12.351952026431652 -5.818949037410024 0.0
165 2 6.873994242041195 19.19445852030254 0.0 6.2401406778654245 -6.582531882395474 0.0
166 1 2.8516346346218113 13.904756987654164 0.0 10.208922619529686 -9.127401631460687 0.0
167 2 1.5431608928581062 0.09087245624080031 0.0 0.14442486287326559 -1.2460875133648617 0.0
168 1 13.879985598272771 3.7491141576383393 0.0 -10.148695205144145 10.61705676266975 0.0
169 1 18.57041778792178 19.084210459324098 0.0 1.9335727023393479 10.68717244329957 0.0
170 1 2.0486733801536854 18.484670257912413 0.0 3.582660997244593 -10.555565915161122 0.0
171 1 0.8972391780906073 11.691860260116194 0.0 -7.233589616424505 -4.8016508492230585 0.0
172 1 12.596735425633058 1.6625736768340431 0.0 -10.964925754692349 -7.437853528051457 0.0
173 2 9.710237951407533 12.53747170159111 0.0 -4.09497149168413 0.796472872960996 0.0
174 1 3.3381194710119457 0.855576814674857 0.0 -14.968066591755903 0.4981339424948193 0.0
175 2 0.7106553279679583 13.119630678348187 0.0 0.17921457256831272 -0.6079483104271721 0.0
176 2 16.481135150004913 18.726111299300698 0.0 2.202068726105319 4.138701479230529 0.0
177 1 10.645263899347599 0.703633917319968 0.0 15.560115282234545 -9.039169747468996 0.0
178 1 16.8744408077142 0.03365523577195311 0.0 -1.399692451685917 11.679928481411736 0.0
179 2 18.92146229357755 1.9772377592779942 0.0 -9.6521171454551 -1.1000371357061245 0.0
180 2 11.403653707676549 4.101992049491836 0.0 -6.5196944617983315 8.376160864012187 0.0
181 1 19.033253301036826 18.809521087509214 0.0 4.766114507775341 8.813533105763705 0.0
182 2 7.254508016622289 17.680389238744528 0.0 -11.505705911689093 -1.1920225774435933 0.0
183 1 7.775362637515161 8.60260543965623 0.0 10.506549069718938 -7.523718701760858 0.0
184 1 10.184707102696661 5.083122686683401 0.0 -0.1710759656392449 4.0617600118203745 0.0
185 1 12.716560865354328 13.906092887724391 0.0 11.871645610961282 0.06166797558858321 0.0
186 1 7.5913122186059505 4.670879863038067 0.0 11.39945400845602 -2.36409381761675 0.0
187 1 8.498368983100265 18.61796535650653 0.0 -0.032433928434332834 -2.781511998990264 0.0
188 1 7.45943508822198 11.362701686568647 0.0 -3.721450135864981 -12.048700226233873 0.0
189 2 9.209684407104033 11.361032838447292 0.0 -0.4454050527401228 4.641278151188171 0.0
190 1 12.215810372628793 4.781525743681923 0.0 -8.025699369920757 0.030818051703901096 0.0
191 2 0.8124689629162047 15.339811674046208 0.0 -4.997713490605156 0.532542404273287 0.0
192 2 17.94007382065663 5.821032746010718 0.0 -2.653604921634425 -1.19588481317501 0.0
193 1 18.632423837577612 0.397363859172539 0.0 5.576021910911832 -6.030456031839837 0.0
194 1 14.13669767680461 5.173484814319168 0.0 0.20937106618454157 -4.5790632464767205 0.0
195 2 10.423071089858562 13.111281768476278 0.0 6.150772857991432 6.077340563079327 0.0
196 1 18.37342581154981 8.016093718384905 0.0 -4.0833775517880095 -6.293160357165988 0.0
197 1 18.803279327779208 3.2381477161018353 0.0 6.482001233613066 4.874263818784351 0.0
198 2 8.046780611334697 2.925080302209559 0.0 1.7674842021550083 -0.22146674660376212 0.0
199 2 11.267334101202644 10.014611453113227 0.0 4.600671833696969 -9.223147270850511 0.0
200 1 8.803711409130242 17.84137913222212 0.0 -10.664201227556205 10.088274046318805 0.0
201 2 11.202348696094578 1.563581324218086 0.0 7.808873665267509 -1.22802433883706 0.0
202 2 19.59294826120282 8.470403284754818 0.0 12.34784813595819 -6.05292439310484 0.0
203 2 19.051818281058456 6.623544748355606 0.0 -7.989783590354034 6.88107995307461 0.0
204 1 0.023559472814735805 11.748010366473986 0.0 -0.3196128281355066 24.101245996551324 0.0
205 2 9.92450442503099 7.830433461013636 0.0 6.022493276599326 7.479952123025538 0.0
206 1 5.118105991604106 10.965305740842432 0.0 -6.133065460107678 -13.481910578344266 0.0
207 1 16.392618217495144 10.202666200860316 0.0 9.95166742313631 -3.4726945232123985 0.0
208 2 5.059347609640566 6.25170951011693 0.0 -8.177032889580845 6.886131301580203 0.0
209 1 13.79943757141736 10.953224230878416 0.0 6.778713770623687 10.35006786574142 0.0
210 1 19.281422982096817 3.1459843907408196 0.0 17.924690743082866 3.1213052059182007 0.0
211 1 11.065213355627032 7.188544295399542 0.0 1.446933405665891 -12.703147927855015 0.0
212 1 18.455874578119953 3.0165769253670383 0.0 -4.003056125171455 -11.944267127055662 0.0
213 2 14.183265090542369 11.946724645406166 0.0 0.17341451429120838 -16.2967641275613 0.0
214 1 9.561868865958568 10.396553540727234 0.0 4.391484381040456 -3.1986356138803935 0.0
215 1 5.137696880842226 16.792562991877915 0.0 1.3181761662342817 1.871878297081287 0.0
216 1 16.100278187308238 12.36916337979494 0.0 15.328041455597825 7.044356617755222 0.0
217 1 16.339223570062117 15.337872507056584 0.0 -8.821766978574399 14.910521971467993 0.0
218 1 1.8410407685588646 14.688330628677084 0.0 20.45539808356239 -2.3525401315850893 0.0
219 1 4.234546324689532 15.578781765079166 0.0 8.176043431925338 3.436017235103395 0.0
220 1 14.505174609746517 16.561924073706567 0.0 -3.7085718548117224 6.022224014661446 0.0
221 2 5.876460093216299 3.1267067986561963 0.0 -18.03731567392288 17.570497054910522 0.0
222 2 9.944723416660164 14.966387117589438 0.0 7.706452773714875 1.5082116997574573 0.0
223 1 6.5013277422276206 12.938567022056075 0.0 9.40468189946744 6.925364918148284 0.0
224 1 4.58344733435849 17.85375920045757 0.0 2.385797763240636 -3.508151440082611 0.0
225 1 10.604674136734076 10.897091033944234 0.0 -12.743840647014075 -8.676111742945718 0.0
226 1 15.584555214677955 16.15263266641603 0.0 2.533131335141161 -22.2609679176047 0.0
227 1 13.680493806558221 10.440341070069298 0.0 0.3711488037703485 9.701424481110134 0.0
228 1 2.126692468915818 17.084482712685492 0.0 2.8099321602019556 15.78105055590289 0.0
229 2 1.3082808073106986 4.867446498467875 0.0 -14.028988228838605 15.315122126006624 0.0
230 1 19.350220646002594 1.0591472025366098 0.0 2.4971393844779697 12.090610011594336 0.0
231 1 10.841752085837877 5.695992459408307 0.0 15.948071978162119 14.360988498454946 0.0
232 2 18.96531986712893 5.648698366993143 0.0 0.5353391087466715 9.865848773015031 0.0
233 2 5.002581290720666 5.425533630081093 0.0 1.8631872232909665 10.591357944258677 0.0
234 1 1.5905638132164266 13.361203126292901 0.0 -19.910470512141877 -7.68028690666039 0.0
235 1 18.638949644674327 3.8400820677075127 0.0 -1.6359250779656194 5.046933352763662 0.0
236 1 19.545979545943737 16.04762728294572 0.0 2.7236180993314534 0.904183288836139 0.0
237 2 8.644926088806294 0.3146884700539433 0.0 -2.2906051994651824 9.145206208396639 0.0
238 2 18.569815621112383 4.6332979218878885 0.0 8.816756031726776 16.648213561117224 0.0
239 1 16.237063366464653 2.2906606189366348 0.0 -1.087087172835217 11.37463320438698 0.0
240 1 6.056413880023613 13.277503786721308 0.0 4.1468861811415705 -8.625940974511966 0.0
241 1 4.3964438056290165 0.8961130702462211 0.0 -9.092073804022942 -4.480273005333367 0.0
242 2 5.7165428903493645 15.299153780400404 0.0 1.7701561471569747 10.963772920455716 0.0
243 1 12.892534842894996 3.5297445819684032 0.0 6.920257336438917 -0.8727309846673338 0.0
244 2 13.426290598952534 1.7051621917111761 0.0 -6.5882069915619565 -0.9772358636514615 0.0
245 2 4.04239314252294 19.001069411085624 0.0 0.4743930895705399 2.736359187779708 0.0
246 2 10.086853356599878 3.1089721952393345 0.0 0.4907062602314634 0.7222694369963722 0.0
247 1 19.16309118806615 17.606075943819658 0.0 15.799522558473504 -12.323239386852029 0.0
248 2 16.72904674196667 11.176314711038845 0.0 5.134476739028471 1.6820810559895634 0.0
249 2 3.155951075683819 18.479320035833823 0.0 -6.369841953094502 5.914604675339066 0.0
250 2 4.37295028627572 10.574855497307194 0.0 -0.3812717110387778 -7.823307663406525 0.0
251 1 11.042432110744663 6.244878546736193 0.0 3.6846152834952117 18.14927218197852 0.0
252 2 15.956249144228407 0.14606689893727362 0.0 -7.35580646538252 -17.10845327397348 0.0
253 1 0.07629190198307437 0.055319383148640114 0.0 4.562676904054548 6.483925352655822 0.0
254 1 8.651237353715347 10.132800145104063 0.0 -12.246795871900265 12.968122642611922 0.0
255 1 0.4737076047737663 4.620487450302653 0.0 -2.349804369174616 -7.189099567623032 0.0
256 2 18.392257854996515 10.72949528908623 0.0 -2.666769415411096 -5.9684737272437 0.0
257 1 12.386175687826764 14.453190374918794 0.0 4.249376216667437 8.406269310360097 0.0
258 2 8.234797576470449 15.659437788858733 0.0 6.102776107084449 -11.047898886135487 0.0
259 2 3.032714315497298 10.679688599280958 0.0 10.268212044627822 -0.12684355942671222 0.0
260 2 2.1143794250103363 2.166110276437956 0.0 6.069170959222413 9.687808967517487 0.0
261 2 2.1862303232897298 12.856350111211075 0.0 3.4230764236847424 5.426171081129751 0.0
262 1 1.0322955723001577 1.1310830024305496 0.0 11.34830015393219 7.287877982219984 0.0
263 2 6.787533959290268 3.0554825950784537 0.0 2.576334806263371 11.949637119587361 0.0
264 2 7.831264933024952 19.471948420014193 0.0 5.458899365263089 1.3808551196474037 0.0
265 1 9.099749565527103 18.73670376856291 0.0 -9.505883784956785 -8.805521428587388 0.0
266 2 15.439346316383926 8.383234426208855 0.0 0.7448965971877084 1.1541228032184156 0.0
267 2 10.564570559835452 14.029173014099847 0.0 -0.35505225027885207 -6.517047665540624 0.0
268 1 13.978500535160073 12.7871094067593 0.0 -9.972766062210033 -11.401105243030926 0.0
269 2 11.895681069295629 16.83700854612743 0.0 -6.474412263059911 -4.637225992303246 0.0
270 2 11.45222120095969 11.623037273725052 0.0 14.206188878495775 -6.707941299138643 0.0
271 2 10.176000253291921 19.56648635439938 0.0 7.642999328806977 -1.9227734970123471 0.0
272 1 13.663043364936044 4.6043955069103655 0.0 9.395784233993991 12.109862103495262 0.0
273 2 6.1256366678423735 2.232034152266957 0.0 -3.365314651415363 17.02038821131908 0.0
274 2 2.605894247812006 8.927117122330118 0.0 -0.18984612023586195 4.394615388577156 0.0
275 1 14.587440001371474 0.7992187997779944 0.0 -8.899110108174026 2.2247876846140318 0.0
276 1 11.2794375261413 7.660412143768659 0.0 2.4177963876451884 12.260556664665781 0.0
277 1 13.61330674847974 13.957934968129504 0.0 -6.346374248760186 11.090236078125782 0.0
278 2 10.032498605940651 1.5303235777832158 0.0 -10.936402814907016 0.17479656717084496 0.0
279 1 3.112901056071697 11.961886207656326 0.0 6.68287211647121 9.635002265528646 0.0
280 2 5.839493835307042 10.133918647060968 0.0 -3.9646147322311354 -6.613930197076522 0.0
281 2 19.30305530375073 7.558357526571084 0.0 0.2660526987101779 -2.10973449897502 0.0
282 1 4.26952174632197 12.525511585793447 0.0 0.0785764993901555 -3.9648340794857484 0.0
283 2 13.65765881442037 16.76855241636477 0.0 -0.9461487074244452 2.685145561964712 0.0
284 2 3.8206541916061956 9.953005115403622 0.0 2.6830784570282136 -5.922794427338278 0.0
285 2 4.015288878437285 7.030675718465444 0.0 3.873777468675699 -2.0523282909476976 0.0
286 2 15.213747359329844 11.768812672186307 0.0 0.5835814367236101 8.347889054533946 0.0
287 1 13.299309582352466 3.3426703109574865 0.0 -13.200878188311728 12.624077979636617 0.0
288 1 13.82409319283366 14.462491606280974 0.0 6.8451837766961035 1.1752056053835778 0.0
289 1 2.8712408351406387 8.009782007010234 0.0 3.955901308804756 -8.356166577434944 0.0
290 1 4.570541064408682 2.7971431730915164 0.0 9.31764868107084 -9.841023903826699 0.0
291 1 4.8603142627658436 15.726931751401452 0.0 2.6464426905852863 12.910816155599885 0.0
292 2 5.3306147784059075 18.559775890713023 0.0 3.870565543193492 -2.9154294880590723 0.0
293 1 9.093894345257054 19.16533377077549 0.0 3.2881116576818483 9.17841233741984 0.0
294 1 3.5316977294630836 0.39853939711961117 0.0 9.121203932602386 6.28432955624587 0.0
295 1 1.3906059397881878 1.8556313562656073 0.0 5.441421013518857 -20.318770035976254 0.0
296 1 1.4933706355465222 11.888631773063043 0.0 -0.8269094758751887 1.6704033638477958 0.0
297 1 19.51883031456748 17.186390016343232 0.0 7.889578143130934 -1.6804113545436161 0.0
298 1 5.290602671165215 12.488331784357904 0.0 4.015161317112481 9.52450867766343 0.0
299 2 11.309113002657465 16.18797284136843 0.0 -12.939615868145982 -1.4742847060108268 0.0
300 2 4.6765400709553555 13.942341447145203 0.0 -1.5880023919321693 -0.9632002240881793 0.0
301 2 7.429709241366873 3.7101697986014717 0.0 0.7890697815621881 4.441527445407557 0.0
302 2 16.54193327233768 7.472999771336461 0.0 -7.261823633359117 -2.5633437664683507 0.0
303 2 6.508401538348739 16.972821045630273 0.0 6.153366979689642 -12.812876067320227 0.0
304 2 17.852248983851506 3.529169329386849 0.0 -2.914031706538771 8.329507175070754 0.0
305 2 12.05046821618044 10.64755765351581 0.0 2.345639950314645 -1.640749126480736 0.0
306 2 12.857146229254028 7.20289535602799 0.0 3.4329856477921994 8.32813988974751 0.0
307 2 3.197527032446321 6.321601916463419 0.0 -2.8139564789678038 -2.160761230669181 0.0
308 1 10.627095434998145 11.428738150492933 0.0 1.076149038148446 11.412949733053535 0.0
309 2 17.075339490000527 12.92894530697756 0.0 1.1917398181673091 -7.278764918731391 0.0
310 1 0.20433812235163223 6.7174559239267815 0.0 4.771945055386633 -12.716459553326015 0.0
311 2 16.84833651465722 5.259234845773487 0.0 -8.765985088345937 -0.12718110729754262 0.0
312 1 1.7602861502460043 17.500056889604775 0.0 14.510890323254761 25.363922158650485 0.0
313 1 5.177092530929463 11.62682869945738 0.0 -0.2420253134081564 14.722282177370383 0.0
314 2 19.437637578442047 13.251442100201992 0.0 4.018343071805237 3.9255665912302553 0.0
315 2 14.54681593287206 6.624535285887952 0.0 -1.3369514613875513 -6.00626669817589 0.0
316 1 5.370675495507763 16.318803205704903 0.0 4.847036297917365 0.8623706610927275 0.0
317 2 0.9122025814604003 18.48217866750301 0.0 -6.258629984638866 1.431542378177852 0.0
318 2 13.358223489834051 6.338388779598363 0.0 10.552564384439716 4.264687617693289 0.0
319 1 13.15136854572255 19.200951458438826 0.0 -1.3830490124398382 10.833052162550363 0.0
320 2 8.510858929882358 11.000831346073664 0.0 -6.552132337848248 -6.343057688636327 0.0
321 1 14.43607708483631 14.501320460921832 0.0 -5.680530072361984 1.6932593673611227 0.0
322 1 18.362460340926294 18.62716158970658 0.0 -7.303199498352796 11.608313713086673 0.0
323 1 13.593958252847095 15.845983999180241 0.0 -10.662662404527016 -6.648822585936034 0.0
324 2 12.020667660126335 15.257938964880967 0.0 15.231482481590588 8.025464471454331 0.0
325 1 13.406148759594636 9.325694005667367 0.0 4.686389239245573 7.72030140671535 0.0
326 1 9.29183650491995 2.932346706467789 0.0 -10.688207733219143 -7.251369013532577 0.0
327 2 1.8669949423431964 15.551476293824308 0.0 -1.0424181927354936 0.3208036405629526 0.0
328 1 0.047392927919274144 1.4702183898215062 0.0 0.21842933091665986 -15.957275130222481 0.0
329 1 19.51519711006558 18.799130168569263 0.0 13.889117409094677 15.830898492120692 0.0
330 2 2.422521987206916 6.891529740783082 0.0 -2.8114107751803066 -11.048166199384932 0.0
331 2 0.9654400237090883 9.073092486741967 0.0 1.9099617334143277 -5.833767252204389 0.0
332 2 12.597529404208872 16.067806465311673 0.0 12.079783296913066 1.843625370523014 0.0
333 1 10.272751950087237 11.963501887872377 0.0 -1.4246088974889388 7.224646300370133 0.0
334 1 8.001390035627844 4.236519694563763 0.0 10.368698286671327 19.519307920772704 0.0
335 1 8.339953889616002 4.9984820700134405 0.0 3.743026246676639 6.432814628325552 0.0
336 1 12.83427401546929 17.248385690911544 0.0 -16.916988862280345 -1.2369761950671956 0.0