ITEM: TIMESTEP
0
ITEM: NUMBER OF ATOMS
400
ITEM: BOX BOUNDS xy xz yz pp pp pp
0.0 19.7609 0.0
0.0 19.7609 0.0
0.0 10.0 0.0
ITEM: ATOMS id type x y z vx vy vz
1 1 2.179372477071729 15.521100915749036 0.0 3.9631051698906012 1.3207200661549539 0.0
2 2 1.6028661984138013 4.688596034462463 0.0 -13.404873404213264 0.2847271127129833 0.0
3 1 17.91394328356108 19.74422913271411 0.0 -20.298748859085716 1.0420538852003145 0.0
4 1 10.95700731243131 16.111120592303745 0.0 -1.7409239522002975 -11.497369125723656 0.0
5 1 8.741374876002329 12.113143939409296 0.0 4.378701634501486 -16.187308602755262 0.0
6 2 12.000921773489276 9.488814454038923 0.0 -7.903212770673088 1.840440341884621 0.0
7 2 12.93266437857887 8.588533584648284 0.0 3.072912346428334 5.2123271330896745 0.0
8 1 12.734104352554006 10.815125926569683 0.0 5.9712443208437636 7.577678590713755 0.0
9 2 0.4553512294285198 7.183553913900915 0.0 -3.4051161659082423 0.44906912269028515 0.0
10 1 7.701629865361137 12.681088136564492 0.0 -4.271305496620047 1.9428741911494267 0.0
11 2 13.465969090211102 9.743988958756399 0.0 0.5245156945132772 9.181007933093433 0.0
12 1 12.090795391141778 14.528960712797952 0.0 -5.300348963035616 -4.1462125117213855 0.0
13 2 7.910075309610804 18.293981489948067 0.0 3.1923675180139695 -2.802854897971171 0.0
14 2 12.263894185153305 7.74477951043697 0.0 -1.236557548208806 10.259810995026573 0.0
15 2 4.189229147190452 19.712407328864373 0.0 0.030888192249531838 2.390686724243734 0.0
16 1 4.654002142251973 2.8163322457190665 0.0 -1.5722571282303843 -15.39808210989058 0.0
17 1 0.6496010217495785 5.460747283956965 0.0 11.336155626970363 6.92483834049634 0.0
18 2 8.531651687002721 18.944497452500972 0.0 10.193029514558523 -5.616502537042531 0.0
19 1 1.0173230429056443 3.447953989139498 0.0 18.412796464088515 7.749385247146484 0.0
20 1 14.134071493191914 4.56383131888579 0.0 17.394772478346635 -20.39859844413324 0.0
21 1 15.601730920874438 9.867691610217985 0.0 -1.9689396509342991 -2.6195062809389293 0.0
22 2 13.185470642437252 1.6993461187900973 0.0 -8.967331874708277 -2.1046592059838956 0.0
23 1 5.856425590352288 19.7292260759454 0.0 -1.48375249790467 2.2074007701689267 0.0
24 1 13.07150111718274 0.48476964309487436 0.0 -14.863611412457082 -13.700505605666882 0.0
25 1 10.54387155372943 19.285861463308 0.0 -4.731588619265581 3.0593384405128026 0.0
26 1 2.5375050939394286 3.1780784868969043 0.0 11.142803283611956 20.487015934779308 0.0
27 1 8.573027709590587 17.85956881009497 0.0 -17.826582724516953 -18.59454969733128 0.0
28 1 12.277907377574563 17.90042652105895 0.0 -4.748681766042276 -7.566722190823362 0.0
29 2 5.042311280425146 8.24555080864538 0.0 -3.0489800744158844 -8.77965764343056 0.0
30 1 15.439883169560508 3.814149481547872 0.0 -4.161239971473164 -7.5770203609587625 0.0
31 1 6.084075895563681 6.009457123051442 0.0 -16.69530902906259 11.077788806982134 0.0
32 2 14.854724713831068 10.050037092680252 0.0 -0.2872443147054815 -0.8651048746709837 0.0
33 1 17.468584069424818 4.375167192730136 0.0 -1.150065313396923 -2.224038256065788 0.0
34 1 10.352899420653483 16.53235544975885 0.0 1.6729146807704367 -6.3230564980014 0.0
35 1 15.93515958005896 17.916775266068086 0.0 8.883171321698399 7.428278586943948 0.0
36 2 9.021497459740988 8.509348122655608 0.0 -3.319365695280654 -5.947547761434554 0.0
37 1 18.939201429134098 12.957418962247825 0.0 -5.049181391287957 -4.35578589351641 0.0
38 2 2.9753976676817886 4.715235533445482 0.0 0.6786108598784178 4.015027613412859 0.0
39 2 5.061975178106756 16.683136950638374 0.0 1.3434877406024723 4.033678853057584 0.0
40 1 0.10858942373333412 19.042500927899866 0.0 4.900024292642172 -4.640498257988972 0.0
41 2 3.0946961383591125 7.264077023357702 0.0 7.767294579247206 -3.149406705086604 0.0
42 1 13.635203528896183 3.563042242468353 0.0 1.7543327534538078 -6.852442083574128 0.0
43 1 2.3870174205455403 10.129787710075401 0.0 -9.29845398546637 -3.228061282274903 0.0
44 2 13.53047597514046 10.871465778862852 0.0 -3.369985356505047 -10.732493563154737 0.0
45 1 0.6189273674490742 4.464228565666121 0.0 -6.2893075606229205 14.502371093735508 0.0
46 1 14.29151350739711 18.53431902630214 0.0 5.015383260129444 10.291574246859382 0.0
47 2 8.235236606859095 4.637561446818055 0.0 -6.197451842876466 -2.8719452056264005 0.0
48 2 4.644755592113282 14.669393229392238 0.0 -1.2366471917290984 -6.608055697765383 0.0
49 1 2.495282619262534 12.786770919385424 0.0 5.274458542324628 -21.995392858567104 0.0
50 2 10.123335351540947 5.638460127291727 0.0 1.5478546842465617 3.0148385509342126 0.0
51 1 13.608243250487444 0.0006622068829030031 0.0 -3.6563352106150138 -4.999106915386591 0.0
52 2 14.236427120301702 15.409789729066794 0.0 -5.286668705768997 0.9555362030357081 0.0
53 2 7.774565692673571 19.412180053646765 0.0 -3.209698392601565 -5.969103490529509 0.0
54 1 10.397368237330769 9.274768323305684 0.0 7.536008743085164 3.4852503709144327 0.0
55 1 13.93275363843003 14.631707033270878 0.0 5.17887177474292 8.810435396368035 0.0
56 1 7.1067697734309 5.874832797803537 0.0 -1.2010788784161888 -15.05070453347926 0.0
57 1 14.79044739972573 1.7449673373464132 0.0 -9.431292630622428 -0.897820821669881 0.0
58 2 6.0497536867944435 12.396849546110946 0.0 -4.055138667525455 -4.395854410921326 0.0
59 2 1.8055303462652985 0.7356581024380308 0.0 2.063601698913103 2.1639780016385006 0.0
60 1 9.766525465689398 3.927610842855226 0.0 3.264474025004315 -8.295994520596423 0.0
61 2 3.7464277549186757 6.289284928850289 0.0 3.83358008405401 6.328911522374474 0.0
62 1 16.894936008708722 3.737324250690292 0.0 14.677275087521762 -4.1839131572186465 0.0
63 1 9.802495346963214 18.46853954486127 0.0 3.652650055166607 -7.76795269439114 0.0
64 2 6.130517264325138 4.982976809301956 0.0 -0.31372307824944945 -4.852540343905439 0.0
65 1 18.262640635845063 4.441975389888243 0.0 2.997970797515118 -9.91200691693141 0.0
66 2 10.690328783969589 6.563154812436343 0.0 -4.764203632095986 -4.536894207777486 0.0
67 1 11.248634904317738 9.415836138081087 0.0 2.0128296794092027 -6.873633835673201 0.0
68 2 15.55641614678213 19.69252437535322 0.0 -0.7401145940076868 -0.7509393130736919 0.0
69 2 9.05056416574228 10.469553472150734 0.0 -3.904215689755844 -3.5498461711354654 0.0
70 1 1.2418808027130808 1.9434893612922364 0.0 1.2084078803315883 8.592654566766175 0.0
71 1 13.942285753203855 18.012273772205365 0.0 -7.85358230294382 7.935085063356718 0.0
72 1 16.534185398630584 5.458306170833194 0.0 4.708719333974228 5.1962249685795925 0.0
73 1 15.917848878587662 18.68374933292474 0.0 -6.898391527294893 1.5950820338769893 0.0
74 1 2.314129772750132 9.04132280377376 0.0 3.4992024249816867 7.278600306830164 0.0
75 2 9.875331839431803 15.895315277733628 0.0 -1.108684932126985 -0.6489462039794827 0.0
76 1 12.66523256975868 14.68733766935089 0.0 10.041791058840364 2.196257860542663 0.0
77 1 3.496671345912534 14.188963664470236 0.0 5.191633704967887 -6.25658443974003 0.0
78 2 18.62622010329157 19.139503946450574 0.0 -5.804284328188586 -3.4766576471424977 0.0
79 1 16.102079658996523 13.899162227304512 0.0 -4.573151881455704 -7.198129886578649 0.0
80 2 7.648273909051951 7.332057575511596 0.0 0.4480004991067451 11.750334498625135 0.0
81 1 13.554791969635767 2.92761923094059 0.0 7.932880320279802 5.6947568358317975 0.0
82 2 4.2417680490085505 8.672779704039073 0.0 1.8440004583572087 -6.29689068615819 0.0
83 1 14.934974797356595 10.852143669818252 0.0 -14.185676089288194 8.270028732033323 0.0
84 2 15.620433644703825 1.5785751752335724 0.0 4.092599702336453 5.155253949976445 0.0
85 1 1.1203236369681973 1.3328675640273158 0.0 9.02414533567417 9.597551341408124 0.0
86 1 3.155282182315176 14.980489763398142 0.0 13.628676080097051 -8.800942051359296 0.0
87 1 0.3326419707283786 13.88815021897474 0.0 10.02951462018282 9.04486834137349 0.0
88 2 11.812471690884164 6.868865965017324 0.0 5.3495176155830295 -4.20841778247882 0.0
89 1 9.937899755472847 19.706616594343544 0.0 -3.1542949895422 4.052991559682959 0.0
90 2 6.345099778582672 10.164702969815648 0.0 -5.4291357575374475 -0.21085555662244757 0.0
91 2 11.012602102944898 15.02342357880253 0.0 -9.323439057987002 11.160924307162608 0.0
92 1 5.50605489844152 0.35061650920902787 0.0 11.651651156183137 1.2854159031272279 0.0
93 1 14.181040897757832 17.265066016831387 0.0 2.791161138155582 -11.847391820995279 0.0
94 1 9.08415966267712 17.294395986103364 0.0 4.25128833765565 -7.393171424990431 0.0
95 2 11.09664010664869 17.684973957299995 0.0 -2.4696905952999146 5.987971749575751 0.0
96 2 11.493980482660826 5.930189805660957 0.0 -0.2971793191382804 1.7648478857155887 0.0
97 1 4.977823748710675 13.509176028611199 0.0 14.034903551456196 -5.474002648200326 0.0
98 2 4.457518319096133 18.03323033216973 0.0 -3.2530441695305226 -0.1829739834203328 0.0
99 1 1.7345553855788671 15.332926358173758 0.0 -6.432239964688912 0.49127223102402917 0.0
100 1 2.5823380275967684 9.599940858074962 0.0 4.51041789416569 -6.794733481105273 0.0
101 1 15.196291314603053 17.236890954699373 0.0 9.229158904398144 7.316412595055812 0.0
102 1 10.775580555200296 11.28079555531637 0.0 -5.93764747390111 0.9879235776475013 0.0
103 1 19.257428968793487 5.340208884123544 0.0 4.208058486837839 -7.047320636894873 0.0
104 2 6.750920781358877 10.985192752483641 0.0 0.33338176196627034 -1.472829778470352 0.0
105 1 15.101824197801383 19.02794997537 0.0 3.0997802420341847 -11.160860244515382 0.0
106 1 14.473400187685332 12.435432693935185 0.0 -4.387850610271537 -4.692718530538819 0.0
107 1 9.334336904897844 6.944021671639909 0.0 4.852163927255596 5.670115200896512 0.0
108 2 5.013893117495362 12.607923301916372 0.0 6.931237980244086 -1.0060554853491381 0.0
109 1 7.629766907938594 6.3716411119322 0.0 -0.8433634893755816 -7.3185771984246415 0.0
110 2 7.4240266225411755 3.304090586157497 0.0 -2.1001057921395936 2.3746435821767164 0.0
111 1 15.495888524683705 16.803497922178543 0.0 2.3406329255938716 3.9437951844046295 0.0
112 1 8.173622979985176 2.8336787938030565 0.0 -11.606124242987454 -0.7018663952650309 0.0
113 1 4.689462004945629 10.70001262825028 0.0 -8.101313353487342 -3.783654481883152 0.0
114 1 3.8793157000006233 4.922440312849415 0.0 -12.641152893240513 5.914522920861356 0.0
115 1 3.935608148406726 7.81508321548176 0.0 -2.464326432792878 6.484665510019623 0.0
116 2 16.185711112927496 13.02344940730447 0.0 15.962934412977058 -12.250900705551912 0.0
117 2 7.343861284332857 17.150190422620117 0.0 -1.6052789004159802 -5.0217768225380075 0.0
118 1 7.1941849826567665 15.682433421146655 0.0 -1.8482763610439314 -4.056736762608877 0.0
119 1 16.412121278139857 3.4013474673692827 0.0 3.0979156310769826 12.307592481567976 0.0
120 2 3.9452134689938774 1.2421910923575656 0.0 -0.11865693741012626 -1.5844598360910744 0.0
121 2 15.773305543764168 2.8062968282553764 0.0 -7.267307285776914 1.7452304872800877 0.0
122 1 6.191381801855045 1.8347988857842072 0.0 1.2934229820081007 9.294330998527348 0.0
123 2 1.031435756659067 18.618883372344683 0.0 2.5132888482319755 -9.742388761579393 0.0
124 2 10.38342524207899 14.36447373886843 0.0 -1.8725205414377888 -1.6637600810821562 0.0
125 2 19.44805147983781 18.30409553805419 0.0 6.145502865661095 -1.2665861705974912 0.0
126 2 8.88137628785431 9.539395741733882 0.0 5.570164757393395 0.9515985506895664 0.0
127 2 9.174627249134868 15.02648715682858 0.0 4.262465455914475 3.9504838236038498 0.0
128 2 9.124858623031422 14.142557881066205 0.0 -2.3114517846625153 -2.6059771077992835 0.0
129 2 5.4065837513896975 11.177472782685786 0.0 5.345655122776397 12.452001969657834 0.0
130 1 12.39783191773901 1.8240009782742115 0.0 -1.7676465762263824 -14.86603453431369 0.0
131 1 16.53398814989686 6.795768234133638 0.0 -10.627143470457687 -1.7083073292723931 0.0
132 1 0.12956685824044478 12.778002728094156 0.0 8.553536312483146 -4.43900166151624 0.0
133 2 3.230991441933088 0.3908861045033839 0.0 2.624905516529082 7.711681484927466 0.0
134 2 0.9851578163232858 14.327558998944893 0.0 6.8621360517235095 0.07311092331258214 0.0
135 2 5.510800546351564 10.03888313366443 0.0 -10.863795161329723 2.7937756922537837 0.0
136 1 14.19685197364045 16.15761895662639 0.0 -9.581176490010199 11.873949181901436 0.0
137 2 4.302924843003779 15.503139147267223 0.0 -0.4486880522839256 10.25016355441694 0.0
138 1 3.3027483076542565 12.740489776524 0.0 -1.1355173346416412 3.1120764072828795 0.0
139 1 17.89138645266508 6.602897281437178 0.0 -17.802219837814146 -19.330892542159848 0.0
140 2 7.598667269356707 13.9274829457882 0.0 3.467133817782154 -2.5451302513837564 0.0
141 2 0.8385324029859743 9.337279195167525 0.0 -4.529331929023034 11.891993499328244 0.0
142 2 13.891872649261284 13.206087922994316 0.0 -15.04662281083382 0.9311360041323476 0.0
143 1 2.090805974234694 19.431760400804762 0.0 5.5417429575333506 -3.1192563982747648 0.0
144 1 2.3938067403339645 11.07583852980079 0.0 -4.540368267932398 5.2845124346284775 0.0
145 1 8.976918684551524 16.052527086566293 0.0 -5.159641893058439 4.869680131913323 0.0
146 2 10.654254792364052 2.5278243958001854 0.0 15.927076822179506 3.920893483411069 0.0
147 2 14.11366167718557 8.1100195870072 0.0 0.7357515943108184 5.757693771261077 0.0
148 2 8.46836557773084 0.4612719012046134 0.0 -8.828241583970255 0.8788058298092286 0.0
149 2 17.0386222743925 2.9019010850532125 0.0 -4.294305131660946 8.792936726490181 0.0
150 2 3.4287083127395266 11.292703662525193 0.0 6.455747984157704 -14.745486400250618 0.0
151 2 6.118316420106138 15.136644057890926 0.0 -3.016863179096556 -2.903606104688296 0.0
152 1 9.826156698415067 9.909563127077998 0.0 -1.519539409438709 9.519651801327889 0.0
153 2 2.3547317283114917 4.071957437640344 0.0 3.2643745136065414 -9.675558854046415 0.0
154 2 17.183265244777846 15.291645209882008 0.0 8.439700416604847 5.742713176506294 0.0
155 1 6.944060829458994 16.22332285571847 0.0 -6.3817303259560525 -4.044872507568843 0.0
156 1 5.051902450902258 6.7537327138461825 0.0 5.830438200169988 3.698813279793393 0.0
157 2 18.269546386082332 15.995057542663817 0.0 -12.544582637441197 4.58345715984767 0.0
158 2 17.83197417902605 2.000549877442685 0.0 -0.7730202858008288 -5.756849134901282 0.0
159 1 9.082156169995944 4.846526264019644 0.0 3.2704185206824734 5.394306223953487 0.0
160 1 16.90695625536659 11.63733584358293 0.0 -10.653689944831248 4.919805455390457 0.0
161 2 13.969619828514618 1.1174237143630168 0.0 -2.7983529811651517 1.7550364381222934 0.0
162 1 16.551379829446578 1.8223041154687722 0.0 8.017577954448251 -3.8596544301034434 0.0
163 2 13.399159035472746 5.622424326735494 0.0 -4.0529416525226765 -12.083835817954554 0.0
164 1 5.269155994857541 19.59192371140438 0.0 -0.7021733080624308 0.6967153916722396 0.0
165 2 5.640300075507019 14.155943233486893 0.0 -1.8652466784973216 -1.302225285999864 0.0
166 1 9.820970660809152 13.778900983697257 0.0 5.826793244520178 -0.6061405532818753 0.0
167 2 13.13651221052956 15.872624878260295 0.0 -7.588889612475821 -0.6607388107107799 0.0
168 1 3.2988904622475914 8.361925252944925 0.0 7.9704016075461785 10.573801134333975 0.0
169 1 2.8437534188889946 17.095813055902727 0.0 -0.5779297718668203 -1.4264637095100958 0.0
170 1 9.22997659649221 12.76803854097393 0.0 12.170513986539182 1.9349054450348597 0.0
171 1 0.8443564289552739 6.191047534280594 0.0 11.141331611334898 -2.362636901942163 0.0
172 1 3.966527248112359 18.940155171410083 0.0 8.42711431247706 6.497721670867073 0.0
173 2 15.427374905091002 4.607845065931422 0.0 10.918626869811872 6.647691587316525 0.0
174 1 14.850509025714224 7.25377772007673 0.0 -10.06965107189328 -0.4285112574714264 0.0
175 2 4.836596495400103 4.402163725424435 0.0 2.563559904474102 -4.159110330723917 0.0
176 2 18.382906057598497 2.9670052503010083 0.0 3.8490915697780914 -3.611792958020829 0.0
177 1 10.59899750947629 12.383931066255384 0.0 -3.1380551139549975 -4.04188337497781 0.0
178 1 14.550689423009334 14.270534056463566 0.0 -3.0906805057026068 1.9044805418826356 0.0
179 2 16.98256720010679 8.356192837730358 0.0 -16.34073024313664 -3.25300599764281 0.0
180 2 17.956471312125768 7.812029475399529 0.0 -4.652065429551574 -1.915354737715933 0.0
181 1 0.44533129858582404 17.710054797684233 0.0 -4.459072725104434 5.801288596023882 0.0
182 2 8.262528078230144 16.76701122775269 0.0 -0.9575388373948505 1.5910338646425473 0.0
183 1 12.382875141672423 18.917591140490547 0.0 -3.845808178416957 -10.486427029938937 0.0
184 1 17.189972132708405 6.175531204168922 0.0 -10.083193120590643 -9.252652644731958 0.0
185 1 7.580300009406936 14.842750885153729 0.0 5.842795736337053 5.073884555599623 0.0
186 1 17.566808635630725 4.956439998671293 0.0 1.0335852005672268 10.56760957090179 0.0
187 1 9.698375220812572 7.342687531003661 0.0 5.841529888119133 1.9600977338804078 0.0
188 1 1.7174211664181025 12.905863444904385 0.0 8.06067133688774 -3.9229795768285403 0.0
189 2 18.251990413752615 18.302267594189505 0.0 6.884286908459084 -1.7467318501541118 0.0
190 1 11.510950746504589 13.178102218625854 0.0 20.46966669904075 -1.0142939858998754 0.0
191 2 0.8408313478937736 12.374983472976597 0.0 1.0036218832020338 -13.227361123109212 0.0
192 2 6.565765532655799 13.400795956459682 0.0 1.2818506613101375 -1.0551332837361802 0.0
193 1 4.882996553919073 2.228532674731723 0.0 -1.0541899735354177 -0.2216068848577304 0.0
194 1 18.78294975033901 16.4729528162865 0.0 2.8744770208802275 1.384461593737068 0.0
195 2 0.21578754533837655 14.962358216874758 0.0 2.453671939860959 2.43076718880441 0.0
196 1 18.60826453807975 8.633581634522598 0.0 0.2655779483481107 17.295590962602954 0.0
197 1 2.138051485964051 13.553763669603192 0.0 5.509899082310845 0.9093268367741488 0.0
198 2 10.553364622006818 8.362318417912714 0.0 -0.7206387147768092 15.467677031090167 0.0
199 2 14.746785123551877 8.87193175968217 0.0 -3.08042526307336 -5.8010275419644355 0.0
200 1 18.72908398266137 9.56060788340444 0.0 -16.863433201728803 -4.785408236496844 0.0
201 2 8.67857146823569 7.503725706403499 0.0 -1.5045835852933371 -7.0196253259351735 0.0
202 2 12.151496963406624 16.677775692881934 0.0 -4.257173102857427 5.324444865613796 0.0
203 2 10.355918869228077 1.4571828387832086 0.0 7.5021228797471915 0.5978810878246469 0.0
204 1 1.7080267438430574 3.2263951520427465 0.0 6.367250677879494 3.967543113575028 0.0
205 2 17.088424208053407 18.92845717314447 0.0 6.269500579862675 -1.548287369833998 0.0
206 1 12.917044248092678 2.601514094300868 0.0 -1.8010304325748263 -8.332313645126243 0.0
207 1 16.604132802347955 7.591854987722764 0.0 -13.618373288382175 -2.253896137244497 0.0
208 2 12.935619361922797 18.27718967382234 0.0 -1.9687728987386544 -3.9570261013916257 0.0
209 1 6.1382345908464115 0.5301822545809134 0.0 -1.3241029838871397 -7.022459322417698 0.0
210 1 18.171106325228145 5.103980106910208 0.0 1.632230637234215 5.617009879320654 0.0
211 1 2.5391512733719805 6.5520306763593155 0.0 3.36512007815788 -7.348499437998846 0.0
212 1 16.2915253999341 9.980314217163738 0.0 -5.170957170026809 8.417601562487082 0.0
213 2 3.4489022587470286 10.199043327592022 0.0 4.657967435771996 8.49123277841249 0.0
214 1 16.358537399179877 11.159034236066297 0.0 3.329197484109792 -11.183133874745394 0.0
215 1 11.043990292807067 18.635173545025708 0.0 13.533344835186115 8.209089406380512 0.0
216 1 0.6385202783731062 16.521888601243173 0.0 11.596854854745114 -13.590461631558178 0.0
217 1 9.196182154646063 11.937483854633975 0.0 -5.620746935834542 2.3548623776576902 0.0
218 1 9.983467941413515 17.686622779613884 0.0 1.1550701481342218 2.3732657948266755 0.0
219 1 12.481152511971617 15.144724423062678 0.0 10.150679474760889 -14.257872677502101 0.0
220 1 16.18704649311344 0.5787672465528597 0.0 6.824914221126209 9.601585119558202 0.0
221 2 12.88632101565406 11.599925559435286 0.0 -0.43019817616501754 -0.13964577534454276 0.0
222 2 11.274922235525603 0.8690654788107288 0.0 10.949203499953391 5.269393383180117 0.0
223 1 14.11295325394333 11.487922285001218 0.0 0.9542063560096227 -12.935291521478796 0.0
224 1 2.88995139829926 12.318164902702563 0.0 -6.44039218944567 -9.354452732655526 0.0
225 1 8.696871382400989 2.7130815136076443 0.0 -10.725439534065702 -4.01279249932643 0.0
226 1 5.3318854560725315 7.137157135875816 0.0 10.888693693799167 3.1561011509249255 0.0
227 1 4.875886490835806 0.4814098404913282 0.0 8.332739683445284 12.257770966214231 0.0
228 1 2.5043416334127255 16.69670667207661 0.0 -8.152859803547246 -1.0011728849281754 0.0
229 2 17.68112431814583 13.63103439051617 0.0 1.8458942418298985 -0.7163201601731581 0.0
230 1 0.6363856638242156 2.7660633244600525 0.0 9.619490005091244 -3.224332217463193 0.0
231 1 3.6717931220555666 5.283950756674881 0.0 3.6708637771785124 19.848541380944994 0.0
232 2 2.8920573180813003 1.3406174244103206 0.0 4.065936757015639 -5.610174983970306 0.0
233 2 10.077846326472205 10.707098557514023 0.0 -1.255912849241959 0.33655514286756477 0.0
234 1 10.280552534430589 0.6195644504690652 0.0 2.8449617061578514 5.113331191804748 0.0
235 1 11.173167525850205 12.789044691365582 0.0 -13.782324330763403 -3.88999687244575 0.0
236 1 19.209601752417868 9.0140998368706 0.0 -2.2159618377012764 -1.3819827137685359 0.0
237 2 4.205812949669708 13.730838973753002 0.0 -7.429690652490789 -0.1657157345856768 0.0
238 2 11.123995478462998 7.483801628799372 0.0 -9.693204597120092 3.567256283495802 0.0
239 1 12.774595832261278 6.248392297547236 0.0 -2.4031062931062945 3.719386543190864 0.0
240 1 7.998872234484335 10.581471319306251 0.0 1.52269123065757 8.292546381311396 0.0
241 1 5.658176037935948 6.215442308260026 0.0 4.339792637886296 6.666149369599733 0.0
242 2 14.37388721143467 0.1867388824284679 0.0 4.682807996483377 -0.38713004407943097 0.0
243 1 13.198534418648228 14.746124468101632 0.0 3.5115416934360564 -8.241156138152991 0.0
244 2 10.38246771980039 13.186330143084271 0.0 1.9932290399017418 -2.642155481549692 0.0
245 2 9.449906322070467 0.862557390927417 0.0 1.468314888111418 0.7399691056852331 0.0
246 2 11.17574482460423 3.6830940844664033 0.0 -0.08421919755348276 0.98651676939065 0.0
247 1 18.5013511814726 13.354862942997176 0.0 4.3572092618892375 11.299399788653114 0.0
248 2 16.69795873436744 17.024464369706244 0.0 -10.691934158149923 5.728895949135077 0.0
249 2 5.721642832878331 4.185039634448895 0.0 -11.97412370658983 -4.171277596315469 0.0
250 2 3.818161247704266 17.302422695684317 0.0 2.151621516321734 2.8065188880299505 0.0
251 1 9.862515845113336 12.197516380281167 0.0 12.58833510424826 1.790029034488634 0.0
252 2 5.558818997762 1.4231088628697224 0.0 16.013551454947034 0.6772616815559905 0.0
253 1 2.98570086198134 5.740155865539599 0.0 6.963059794580119 -16.833966670866065 0.0
254 1 9.774632964275803 16.711842923684127 0.0 -3.337605890051745 2.3490366878243956 0.0
255 1 18.456258423203057 16.9162955016503 0.0 6.673740980930713 -13.304831417997178 0.0
256 2 7.25597337410832 9.865817728246817 0.0 8.287788341438805 -1.4682530477023572 0.0
257 1 12.462751005057052 3.9802956042396227 0.0 -9.468802723142046 8.426802702162732 0.0
258 2 5.717605838817307 2.4326046167980264 0.0 0.27597773614554094 7.312994783418001 0.0
259 2 15.225816618101332 13.392580214241573 0.0 -3.919197508586888 -6.295361150179879 0.0
260 2 2.1395531075645517 14.580868900577018 0.0 -4.94613503014761 -8.013834265739042 0.0
261 2 17.69234678332675 8.917291185559462 0.0 -9.231872435809867 6.265796411285363 0.0
262 1 9.520921612689879 18.88898661767009 0.0 5.150495376557145 -3.466419920907083 0.0
263 2 16.714210076587676 14.489711805963731 0.0 1.0567007178373486 4.188241650449513 0.0
264 2 4.057385126461918 9.493731328227078 0.0 -11.046959589994222 0.4989513407652257 0.0
265 1 17.567752409089156 10.257481953552258 0.0 -21.157402474204034 1.4766127172222 0.0
266 2 14.426942675119639 6.101110376685685 0.0 4.472200124762029 6.299949537710471 0.0
267 2 8.210882783356867 15.928444090707444 0.0 -0.3087674480455017 0.12412904252728353 0.0
268 1 8.350458298957795 6.646124501820645 0.0 3.5457514565713417 -9.051252764887506 0.0
269 2 12.246744239136282 5.047606801881245 0.0 -1.4803880145979254 -5.088364711301218 0.0
270 2 3.512364687418765 16.32133071263004 0.0 -6.172368997634724 0.34883592659825285 0.0
271 2 17.346883572510034 17.775502373962887 0.0 -1.8737769630007328 0.8660185101372319 0.0
272 1 12.50417665549218 10.441867641651143 0.0 -2.0197185142477276 11.875840625464951 0.0
273 2 3.2013522910635728 19.095755534314634 0.0 13.193851792613609 -8.970142263232955 0.0
274 2 13.146118948013067 16.850306194144242 0.0 -5.050730637140591 4.3988286291874905 0.0
275 1 1.0103494530415267 17.72810651326717 0.0 0.8065509294684667 3.66163812629443 0.0
276 1 11.18462907754427 16.638327394183307 0.0 -9.1805289813512 6.723519821417238 0.0
277 1 5.171517993351514 3.214777979229768 0.0 -4.325115970208432 -12.741838189810913 0.0
278 2 4.282162170955819 3.634138174629022 0.0 -3.4927329466465418 13.34294434837517 0.0
279 1 9.356347473583297 18.23051893060834 0.0 0.07499897662840825 1.3942450742918253 0.0
280 2 7.022488476885867 2.324268838827965 0.0 3.1250550284194647 -2.0715631645499895 0.0
281 2 18.8600013526225 3.850624809783374 0.0 -1.3634871327184406 1.6525575107190449 0.0
282 1 11.764143902469842 2.3350301583011164 0.0 13.402628433683574 -0.304697092146448 0.0
283 2 0.5014609981566192 10.20448900917206 0.0 -10.85535018963019 2.1631407598139027 0.0
284 2 19.19731313794582 17.431172953005518 0.0 7.3885608546751795 1.8709267413111421 0.0
285 2 8.398485658587592 11.324843035316425 0.0 -8.46712775024353 -2.1689085747882992 0.0
286 2 18.074686094212378 14.542826430248978 0.0 -1.1267578591512666 -0.04939057371385567 0.0
287 1 12.263261686255845 6.165199048799037 0.0 11.952702731571597 -15.066277582416806 0.0
288 1 18.958671932721344 12.196141117838575 0.0 -14.291876640931843 -4.99685706431901 0.0
289 1 19.23423757261176 16.05632562471133 0.0 -2.0861045935852847 19.15110384624473 0.0
290 1 18.616457734554693 6.5849951990329085 0.0 5.895796045497001 0.14522499939209405 0.0
291 1 6.604908708646428 5.597790581355447 0.0 -4.783273516960693 -8.77076793553582 0.0
292 2 15.970785506004637 8.569085928330159 0.0 0.23454446938828288 1.8064516236769737 0.0
293 1 11.214316979462314 14.221285498094735 0.0 11.50400238779861 27.072818547585825 0.0
294 1 10.961245842305553 13.720554784175336 0.0 -4.875412817499152 4.397257016588552 0.0
295 1 10.239321037843425 18.239217567683223 0.0 -0.004348839119931437 -5.792764365729804 0.0
296 1 2.5936002687738475 8.256644805924825 0.0 4.469644863597027 8.430540610488181 0.0
297 1 3.2553148342514975 9.078260555603874 0.0 7.617320282693491 5.245021045914848 0.0
298 1 5.139299399564261 15.385906847753603 0.0 16.53247218975071 13.199118036985862 0.0
299 2 7.024516446145366 4.259379746889433 0.0 -1.8698719764240237 -0.24873777412676756 0.0
300 2 19.12543895960316 11.308086469796406 0.0 -1.2522731097610735 -1.4097025468616828 0.0
301 2 16.77173968350087 9.295959466678896 0.0 -2.9894331433780605 0.9249519731636558 0.0
302 2 10.649197283371953 4.812886037716381 0.0 3.898020857929086 8.544537729527793 0.0
303 2 1.8027887280304977 11.744936889114365 0.0 6.144513842555532 -0.6621600950433558 0.0
304 2 9.610716296986507 2.6617488927779243 0.0 2.4078420860133987 -1.3301593469298056 0.0
305 2 11.412008114909211 10.45262964466794 0.0 -4.550835950007261 1.5749306694241094 0.0
306 2 2.136951072248288 5.5304951729995615 0.0 6.51785659339521 6.225586876868085 0.0
307 2 4.334126339962987 11.494428994735834 0.0 6.960324679824003 3.6422491086322593 0.0
308 1 18.43197320777368 12.599455265009848 0.0 10.174506789299128 8.741363876072148 0.0
309 2 16.3186325767036 4.25615693471695 0.0 -5.747265156114512 -1.4455806847883834 0.0
310 1 6.257974135870242 3.5526490327822895 0.0 -5.373171604878669 4.778500043434543 0.0
311 2 16.14885570435705 16.03540835315477 0.0 2.7488940797424477 0.020032813523192045 0.0
312 1 12.203142060889581 13.451581087312627 0.0 -5.1736587978703765 -3.5123193886103006 0.0
313 1 15.638290240130596 12.505361139237676 0.0 10.056052509032202 7.714587140838503 0.0
314 2 1.9950008639162493 1.6897206469538042 0.0 3.3474678783091876 -4.035917987319313 0.0
315 2 19.444754836902558 6.688386719240592 0.0 4.5642524175675305 4.865575006277134 0.0
316 1 0.5546236960153781 16.043701718202364 0.0 -8.996318882298697 5.225154324882282 0.0
317 2 1.6665438277178266 8.34417579775843 0.0 3.341660898321502 -5.746587633077635 0.0
318 2 19.398938161850197 10.14762812122018 0.0 1.7654939820435258 -2.9690209680295507 0.0
319 1 19.408264788388465 19.458564258287236 0.0 -10.662718251977452 9.013404142293624 0.0
320 2 1.985234965926549 7.3983454841549685 0.0 0.8524967156614435 5.47709398274394 0.0
321 1 3.396283406187681 2.9912236795223768 0.0 -8.775666702089977 -9.914438918837774 0.0
322 1 10.834269894200778 9.835150171722324 0.0 -6.1096226636360145 -18.00758789877249 0.0
323 1 7.53167919450908 1.683904722375305 0.0 -14.38506348244214 -2.2316830664730523 0.0
324 2 18.850655891956787 0.4402460925018423 0.0 3.528854735426693 -3.6842730490138145 0.0
325 1 9.355738999671718 5.472895692656369 0.0 -6.1286894162806576 -3.5591371374812657 0.0
326 1 1.436487667861935 10.933357104453702 0.0 17.458388935799196 9.341679773465636 0.0
327 2 15.16750819260363 15.313910608923464 0.0 -12.231764306890977 -2.847647830911403 0.0
328 1 13.026667393560324 13.632704587729098 0.0 3.1792439772912213 0.9580729364926308 0.0
329 1 1.0275467842629014 3.9875984435306457 0.0 7.092684477348075 -22.70264076377646 0.0
330 2 17.97982417026742 11.933083668582745 0.0 -2.021006723607436 -1.8174005477453241 0.0
331 2 4.080790288282681 2.23702897970365 0.0 -2.284287897411985 -4.7012612686959185 0.0
332 2 17.212871403981197 0.81871703154641 0.0 -2.950325958483968 4.828190687972962 0.0
333 1 0.09272638049465796 0.9152087457794208 0.0 0.007783679884412019 -1.2057739529500229 0.0
334 1 3.8852209579527037 12.80443556102351 0.0 -4.677875677240204 9.848966644837295 0.0
335 1 1.4099221477960366 13.523102447556743 0.0 18.339283231378857 -5.515443610129688 0.0
336 1 7.130761879903707 1.1913136175943142 0.0 14.446826864562999 -0.3697169422286172 0.0
337 2 0.9146341868151482 7.912957047124445 0.0 -3.0319506998863286 2.0550850802819296 0.0