ITEM: TIMESTEP
0
ITEM: NUMBER OF ATOMS
400
ITEM: BOX BOUNDS xy xz yz pp pp pp
0.0 19.7609 0.0
0.0 19.7609 0.0
0.0 10.0 0.0
ITEM: ATOMS id type x y z vx vy vz
1 1 18.00393209478741 13.796623402507148 0.0 2.0174840736671764 -3.908872218877441 0.0
2 2 7.195101138937686 4.639220018008192 0.0 6.061452233547917 0.7963830504365811 0.0
3 1 4.2167907457966916 7.641269508024182 0.0 2.572312504940957 2.2395826848637923 0.0
4 1 8.322770910241347 17.44195811967442 0.0 0.08906629196940481 11.84893374756019 0.0
5 1 9.04849454441836 7.599138459062373 0.0 5.646314709067754 -2.832801310017725 0.0
6 2 8.048711427830929 9.148203727992382 0.0 -4.716045120304531 -2.687512831874486 0.0
7 2 10.509060371028028 11.755449522575951 0.0 3.750333530476441 20.107980470654113 0.0
8 1 11.202865956787528 8.111886718257486 0.0 5.034703789675863 13.916072793732832 0.0
9 2 0.20687061295996328 16.585728248439246 0.0 0.8632319535106068 -5.575116042516596 0.0
10 1 19.54370755374874 0.14275123104701626 0.0 7.958433032634234 -2.3047664590292856 0.0
11 2 6.808410832044037 17.772408547700383 0.0 2.352615325155231 -1.9296161309444082 0.0
12 1 15.470318060440746 17.375049004058635 0.0 0.8647295073281904 -5.469711867444476 0.0
13 2 5.58906624668072 4.834007316502675 0.0 3.6288324920228847 6.010803701507227 0.0
14 2 1.8674202495155108 8.765796524730678 0.0 -4.924698018903928 8.593247099467677 0.0
15 2 9.52649156186212 13.265588116342855 0.0 2.3076561927939876 -8.309256869114526 0.0
16 1 10.558995635722123 13.683057139239097 0.0 4.1764395071221525 0.5616219006902236 0.0
17 1 16.67691000937211 9.056005119186732 0.0 -3.0655744901853477 -6.960337274120858 0.0
18 2 4.3083587524074485 2.7408999004896786 0.0 3.049596814336283 0.17783389722410683 0.0
19 1 8.996890831089766 18.208805030374002 0.0 12.695677761196308 -5.500117574204903 0.0
20 1 7.764175605824565 18.88985963069922 0.0 4.903530665196322 2.048947505403497 0.0
21 1 18.999294019457423 10.705935142321687 0.0 1.4711768465592636 -3.169416877166162 0.0
22 2 13.700258773778401 7.206497169899443 0.0 -3.7770486184822327 -7.834362721571096 0.0
23 1 1.989789134831446 13.752843972756438 0.0 -1.8682002802649669 -4.392812636896991 0.0
24 1 9.606076822020174 18.091471088941088 0.0 -0.6757643409533544 -3.080220573767798 0.0
25 1 18.63319217861332 3.3163223601252234 0.0 -8.189876136021038 -11.66822783710805 0.0
26 1 13.045801676129187 13.68953270708306 0.0 -12.508258306904967 -10.326211269115635 0.0
27 1 16.371709790946035 3.6588488935891412 0.0 1.014864945139313 9.132304306202006 0.0
28 1 7.914373256568238 0.053752024100339635 0.0 20.657102246550977 -4.0539738182218255 0.0
29 2 11.506515202440303 6.208802233148625 0.0 -1.151663115035617 -12.44932354588525 0.0
30 1 8.476811636111963 19.582935989485332 0.0 2.9928252484785967 9.391427389425237 0.0
31 1 14.033974616712753 6.201990848718116 0.0 -1.9661202459855356 1.2765416892530086 0.0
32 2 5.272986818896706 3.2018801534877177 0.0 -5.885991006267951 -8.934667212852416 0.0
33 1 8.528345938725884 12.200097772755718 0.0 24.609119953527085 -2.9121898347721027 0.0
34 1 1.5640952704964008 11.422986350363253 0.0 5.980409904955141 -5.5998159998061805 0.0
35 1 9.616748560071443 4.929335757384019 0.0 -1.187328891340636 -5.119264618378318 0.0
36 2 17.97131305385528 17.867059106220093 0.0 -4.24263769925227 6.1705093232839126 0.0
37 1 19.022892305100296 11.173253549859163 0.0 -5.922409869942647 -3.26492635611007 0.0
38 2 4.962203099419185 14.22014731188294 0.0 -8.872844692882445 4.230866576097884 0.0
39 2 15.869313253943247 11.986002745452133 0.0 -8.812559586986515 6.7590259355650435 0.0
40 1 6.829256072701797 14.18592685965735 0.0 -2.887231699726336 3.4325265305914083 0.0
41 2 9.448558752726711 10.6869995979298 0.0 -6.696112768613591 -2.0689291323103447 0.0
42 1 18.458576866686865 15.245022124198764 0.0 12.743589030107119 -12.84386449965191 0.0
43 1 3.5215841627104987 17.314059733446992 0.0 -3.357689573486237 10.823004513681589 0.0
44 2 7.269465474936913 14.731375003506441 0.0 6.578820229281997 -5.4766759038340975 0.0
45 1 1.5964273215617886 18.896332400120045 0.0 -7.297294050026431 9.53626498149792 0.0
46 1 13.82045817249862 0.7512845753320011 0.0 0.8719548673022584 7.160123712791446 0.0
47 2 8.917700661557571 5.542261197407738 0.0 -1.7845138202519817 -4.697532800217788 0.0
48 2 0.7449210188371932 12.685595965504609 0.0 4.869115490279977 2.3363366986546144 0.0
49 1 1.0116327388525546 19.097112935414923 0.0 6.940313776310761 18.381297784856987 0.0
50 2 5.745120791458744 12.850504930448858 0.0 -3.6782816173668316 -4.797285177341044 0.0
51 1 8.139298044370207 18.208784768186952 0.0 7.17676591590307 -2.5882033445809594 0.0
52 2 7.535203268777391 11.273013456748442 0.0 3.418121563154363 -8.396054102629343 0.0
53 2 16.973254146488994 13.347107955402011 0.0 -5.225536667541848 3.4302232099191152 0.0
54 1 15.506848495141961 16.201036069171927 0.0 16.481169201227843 -2.7289005601312475 0.0
55 1 0.5804599846068944 1.7906175701230787 0.0 -0.14287491929613053 3.3430806479287285 0.0
56 1 14.229945974773024 17.512461683480424 0.0 -11.898503738356016 8.455764477370854 0.0
57 1 0.860648272353028 7.748528177190754 0.0 -7.1107316185245475 -9.261586842936358 0.0
58 2 4.907125106808853 7.686734058128298 0.0 -3.722849683441033 -1.710919938904115 0.0
59 2 0.35094996188247113 4.010453303664784 0.0 4.456964334254102 6.682257873408413 0.0
60 1 3.3658940461702165 2.642966222608617 0.0 13.248957190004754 -1.8670532828999697 0.0
61 2 3.7787852414814043 15.034835055709657 0.0 6.226042510115517 -10.9765944202962 0.0
62 1 7.445257505897734 16.25718715752567 0.0 4.344330381333976 -15.50328278093021 0.0
63 1 14.981203131071387 0.7698617692068129 0.0 -9.252680841014852 -7.538955757227701 0.0
64 2 0.013466091830225745 13.99004945976906 0.0 -1.6206219351795206 -4.504426271734926 0.0
65 1 0.3670735211375155 1.2284801049747487 0.0 -1.159818857042816 -2.076447511562095 0.0
66 2 12.94286390274339 8.201518610217589 0.0 6.444044488406845 6.011394051996172 0.0
67 1 5.661099594831523 8.589469759083018 0.0 -1.7753720238020498 -2.4631751630578798 0.0
68 2 11.192570043317476 9.274239596917079 0.0 10.738920658654044 -8.711088308880788 0.0
69 2 10.542712852949938 0.5601691925671208 0.0 -3.3539134413313723 2.0190570960988006 0.0
70 1 7.993905535600928 15.51629817665045 0.0 -14.574040706211644 5.346933527559034 0.0
71 1 19.213410299986702 14.963085581584707 0.0 17.70664723378884 16.28707735732588 0.0
72 1 5.235934374436752 8.795742447920947 0.0 16.15267685997726 -3.9209056362714074 0.0
73 1 2.548409003146319 0.2314631919938153 0.0 3.5786726499927424 -5.369448851322086 0.0
74 1 13.664786488988304 11.469536117390064 0.0 0.8980928080595659 -10.456290020311783 0.0
75 2 10.537238769065311 14.427016112823075 0.0 -3.711534285477592 -7.979595419162195 0.0
76 1 19.25131646969766 19.27480343797942 0.0 -3.8356459170098995 3.528021792494763 0.0
77 1 12.724697384727632 1.7440259198580355 0.0 -3.2205910612676747 9.281990228697618 0.0
78 2 10.453537945690574 5.6290771647073194 0.0 -4.681348000659051 -9.510645007470977 0.0
79 1 14.796403094144965 2.3196147508436358 0.0 2.384261379947005 -20.957107602062678 0.0
80 2 7.0244650168033695 19.48576830029306 0.0 -8.219259802815916 4.143008236941806 0.0
81 1 9.20176104805569 12.456956415022775 0.0 -0.22171311147653766 -5.242205987229932 0.0
82 2 4.120603949019328 11.241530669272366 0.0 1.0331152646146784 -6.051913324498733 0.0
83 1 4.841557142518039 15.403511027990643 0.0 6.290188053758523 -0.7335825875892729 0.0
84 2 0.08138624417273282 9.138601397330355 0.0 -8.070707358179966 0.16725916649122394 0.0
85 1 15.967079595634509 11.000297508303218 0.0 31.472086574148566 -7.143005368328602 0.0
86 1 19.215598455714627 2.6567663060026785 0.0 -4.548103399188094 1.7576717328123759 0.0
87 1 17.03421137884156 3.4109504729157094 0.0 -15.792565965191367 -4.556818021725981 0.0
88 2 1.241483144092475 5.579822194136357 0.0 4.442136202551852 -4.173278837777034 0.0
89 1 10.63307033615278 7.547409356092167 0.0 4.472534918133163 4.019110430631261 0.0
90 2 9.027678206434164 16.69723273894737 0.0 -6.460435857388391 -11.10478254630443 0.0
91 2 18.496241533806273 5.519956702403179 0.0 3.1322840234059686 7.095715992278347 0.0
92 1 14.233413145714213 5.207950146524148 0.0 -6.389196986852084 3.2205947353774533 0.0
93 1 10.516443181304576 8.238484447786899 0.0 -5.131120672611983 -14.179899189219496 0.0
94 1 6.508391319559881 5.7885186219626 0.0 -10.495286248345165 6.759433718233777 0.0
95 2 14.213639795429991 1.7392653581633628 0.0 -2.704540159822238 -6.3461580113027525 0.0
96 2 9.880351047594742 15.55797297957786 0.0 3.523353050168742 0.23475771545862117 0.0
97 1 18.100846734875162 12.029925346309541 0.0 3.8118019305105766 -2.510085931048605 0.0
98 2 17.48133673263707 6.572190668801821 0.0 3.5856730614377095 1.4179109823042266 0.0
99 1 2.1471726168559147 14.95331759198727 0.0 4.193225782878444 -11.360256522479592 0.0
100 1 12.51210060682549 9.962115900826749 0.0 -13.82719637242412 7.885673277963876 0.0
101 1 16.08073574589348 4.413265326557776 0.0 9.836035095964005 11.502139381246744 0.0
102 1 13.50698562816595 18.77372573493086 0.0 -10.038567777129453 -1.7983899506215888 0.0
103 1 18.901371156431296 14.574536056500866 0.0 -14.769893955362395 -5.983962524879301 0.0
104 2 4.312337230886668 8.737874572574343 0.0 4.525293686310609 0.38128963890018003 0.0
105 1 15.685747948152983 5.948739594956649 0.0 6.749498567968533 3.4452277947201826 0.0
106 1 6.345679563584236 18.97196744723336 0.0 -6.481739091772561 -0.4000119787276864 0.0
107 1 8.124950255311226 0.5171944146974855 0.0 1.7992450361947478 0.9166062359527084 0.0
108 2 12.538755565729101 4.567240520377963 0.0 3.696939363365394 -2.290184281788652 0.0
109 1 1.7065994517578613 10.798952971658338 0.0 1.8652115470079702 -2.1555853692933584 0.0
110 2 7.962460023687272 5.864345833872339 0.0 -8.891693927806621 -1.501692074014805 0.0
111 1 14.6258772868512 3.491902464654148 0.0 2.999162703197021 4.307896491505451 0.0
112 1 15.149822036780852 13.47165390143208 0.0 10.301030294912557 5.1866379150405715 0.0
113 1 3.418811106030547 1.8708110617342255 0.0 -1.545122612869092 6.396672395639187 0.0
114 1 17.116466002526316 14.297441835177667 0.0 9.154476778838763 9.524139565493615 0.0
115 1 15.69086361214362 2.3483306133148742 0.0 1.0272761996914592 5.897990590796872 0.0
116 2 13.128536803094564 15.829429766952817 0.0 0.33858184770164 -6.764352773867885 0.0
117 2 11.819027778761502 3.845606301920843 0.0 0.2058370579550447 0.16787707042921685 0.0
118 1 8.409553801672905 4.862063776015428 0.0 0.9147203258734569 6.644536218871412 0.0
119 1 1.627103458458114 7.194673987650254 0.0 3.117427253765534 -1.8050164254343182 0.0
120 2 14.911604953636923 14.6890039792954 0.0 10.728830569357577 1.3584711820516724 0.0
121 2 1.2523526768462683 17.73936306287447 0.0 -11.056677183765299 -7.283727710869387 0.0
122 1 16.177087379181433 1.808976609033678 0.0 -4.459066895699826 -4.90942490936946 0.0
123 2 1.640368864586074 19.75060342180221 0.0 1.4074360649366855 -3.3794049555073076 0.0
124 2 1.5699763706342844 3.6089717907324883 0.0 8.122338627684181 3.6670516683508136 0.0
125 2 14.125569921508454 10.78805315352614 0.0 -5.45512114960404 5.2579879614285225 0.0
126 2 6.934069549714515 10.247672925253259 0.0 0.5081836863385768 -1.1815922136454138 0.0
127 2 8.56812148927254 11.16262423437882 0.0 0.7801074360154463 3.533379444792369 0.0
128 2 7.952668110563185 3.8400884913256257 0.0 -3.729900122091393 -1.787008002310023 0.0
129 2 19.133871333690706 7.279484239174053 0.0 15.57213157711021 5.847283596315009 0.0
130 1 0.08894668148612726 10.254057546128625 0.0 -18.065338210491255 19.45497116136495 0.0
131 1 10.788395339194869 13.194644078172752 0.0 -3.4918237096053213 4.85958217018328 0.0
132 1 4.415767438580066 6.615804694588566 0.0 -0.7088735497418144 13.463068283303961 0.0
133 2 6.928293959020193 8.89530985815277 0.0 -0.6981939416879269 8.415129385316636 0.0
134 2 3.2985214841810073 6.671599365823179 0.0 5.725252131922244 -4.395089295364831 0.0
135 2 15.07945738228853 10.287279694547093 0.0 2.9382976492309765 4.727956306916243 0.0
136 1 3.0991434464536223 11.045258494199775 0.0 8.572304418879893 0.030285415816152402 0.0
137 2 14.652035306123356 7.6893037210908375 0.0 4.37991329370804 -2.1673798672294313 0.0
138 1 7.821110721374164 7.6856347882053635 0.0 -7.981868723719386 9.387263882243213 0.0
139 1 15.441821014541187 1.782378494514104 0.0 0.6748709327862231 -11.140758517115577 0.0
140 2 18.18319147058751 7.205108339445548 0.0 -1.0382880578380183 9.862256467532445 0.0
141 2 14.314335115541736 12.055720591132687 0.0 -1.902241576010171 -1.099477706647092 0.0
142 2 10.156526036669403 1.6666008692869498 0.0 1.314107323880789 9.53281860683061 0.0
143 1 14.354523247685558 6.669945514269085 0.0 14.728317642201864 -5.450017768061883 0.0
144 1 10.64124874706277 17.573420625001674 0.0 -6.913818004047244 -2.6295733079185033 0.0
145 1 8.746690947178584 6.713517359991786 0.0 0.7881012589712164 14.18595875786105 0.0
146 2 1.0938557592311235 9.68690339089803 0.0 2.082936859836455 -1.5934143844567945 0.0
147 2 6.891071533176478 1.5203093496471218 0.0 -2.553976965649554 -3.207831937547013 0.0
148 2 2.821973243995486 12.010963534566988 0.0 -3.974017045886349 2.1811086365010204 0.0
149 2 5.7039939040642 16.98662215762021 0.0 10.458287878482968 4.9838773737455195 0.0
150 2 2.0947291741013134 4.940365595870568 0.0 -6.331781965104936 7.049530606969713 0.0
151 2 6.27926810077552 10.979024821365583 0.0 1.1139884607906698 2.008932388949967 0.0
152 1 11.385789931406938 14.116929084008111 0.0 -10.432290711242846 7.0811624157027255 0.0
153 2 1.6573377840925825 1.7371606360643177 0.0 -5.717308419709925 7.98150093928003 0.0
154 2 11.180072012815254 1.8885261348585742 0.0 3.4792001418191187 -12.34499750177007 0.0
155 1 19.041902649618102 3.140423488996421 0.0 9.92338892966833 5.2220786039719576 0.0
156 1 4.101617754828947 13.828584590887498 0.0 -5.22535429559389 -6.096202496716197 0.0
157 2 4.744274184004924 1.9271247686001403 0.0 -6.595713227701804 -17.6788582341401 0.0
158 2 8.201872435308317 14.245682068145381 0.0 -10.062063644183208 -12.838444605824288 0.0
159 1 9.482187644319435 1.1084994827399068 0.0 5.786744520892386 -0.3403772281018683 0.0
160 1 16.15889882629668 12.763047604244145 0.0 16.57295722941289 6.7662995811474484 0.0
161 2 0.5764378608769729 7.090632156304401 0.0 0.16308023478337835 -2.4219959580228516 0.0
162 1 15.033274309796422 17.797342088576137 0.0 -15.791712688865886 -8.420182521009949 0.0
163 2 17.94132462249393 10.31950762955365 0.0 -6.910747816366556 2.0761159109616885 0.0
164 1 6.614329440074286 13.078616868365758 0.0 16.89336110292944 -5.0026024485693155 0.0
165 2 11.29781840285536 10.31316351773973 0.0 8.851076666504957 -2.0516353732363477 0.0
166 1 1.5549935900120644 14.911944593869606 0.0 -6.968643636629231 -2.4963049003736955 0.0
167 2 18.926733314866425 8.226886139305746 0.0 7.196667158246933 -2.4808086766406126 0.0
168 1 0.2862068004170936 19.409795178615912 0.0 -5.2381704538415095 -3.5397664406220533 0.0
169 1 1.9803191932563016 6.213222350185084 0.0 15.92787235769635 -12.62081578515219 0.0
170 1 5.372343867871598 15.063221422990265 0.0 3.131224205702603 8.78820468595967 0.0
171 1 0.015064438229949764 0.7334157544240164 0.0 -11.32640514182439 2.6199432121319237 0.0
172 1 3.5781285509509675 18.811029247335593 0.0 5.277658430570349 -4.264244302032351 0.0
173 2 15.49530949279194 8.490446811546587 0.0 12.07929835816546 -6.2368274977044775 0.0
174 1 10.417215981608017 9.150200405098166 0.0 1.5485778672551767 -21.845132780544834 0.0
175 2 6.9042314339368245 7.613065798746344 0.0 -7.41779849127699 2.432279758241867 0.0
176 2 15.346593469696753 6.785698063808848 0.0 5.797586514516095 -8.592420971404893 0.0
177 1 17.175395405494257 9.589458986870323 0.0 -11.403345389433602 -8.444470656526402 0.0
178 1 19.58045469879015 1.909977624010712 0.0 1.9166586361898648 1.3497165821292338 0.0
179 2 0.41198713387907554 11.409695814629242 0.0 -10.040998583863725 4.99794287683605 0.0
180 2 14.930747191309536 15.559841416187234 0.0 -6.57802776873706 -2.356411771386303 0.0
181 1 4.839085278580835 16.41989777034686 0.0 5.719212786634386 -7.2321530808880965 0.0
182 2 18.372562896239323 18.71070406163251 0.0 -3.7758310710081955 -4.124822719133335 0.0
183 1 2.1570759264714154 11.361294700867115 0.0 -0.8580179523137432 14.22937135092433 0.0
184 1 7.484668564398797 18.40199281781662 0.0 -18.166327310412978 3.2470453773942416 0.0
185 1 16.814844660838514 12.025267769036281 0.0 -8.368793420774784 -13.617141342217652 0.0
186 1 12.599197683403515 2.390526207791254 0.0 -4.1095667023063065 2.872728424101744 0.0
187 1 8.868423880181615 8.447994357873107 0.0 1.216371002797207 5.766409683034156 0.0
188 1 15.985977066284214 15.851073455352616 0.0 -4.896957387165585 -0.48013563155345035 0.0
189 2 4.6285365584986495 10.457686210328525 0.0 0.947190238826301 2.1679215671049885 0.0
190 1 3.3450635518645955 10.207854904132397 0.0 -3.3432926318705385 -12.49802734819898 0.0
191 2 2.8660911009120094 5.976845941964091 0.0 1.76064805497465 6.867879916937967 0.0
192 2 9.987968839770343 3.0601030979963606 0.0 10.687993496882875 5.443523418895132 0.0
193 1 9.327696058887803 0.6663665500146865 0.0 -5.800370851146501 2.1558602962295166 0.0
194 1 2.7092615741705472 18.904862576529464 0.0 -8.219245365661925 14.720991076939036 0.0
195 2 16.127058755381384 0.41105166268277477 0.0 9.422427796964115 -11.843288533428936 0.0
196 1 8.947647165294715 19.44258483463289 0.0 -3.3286973214411875 -10.584553964806739 0.0
197 1 5.206878973176733 6.475907265743869 0.0 10.265274447998088 22.618233384648036 0.0
198 2 17.692978709435646 2.868294898490836 0.0 -1.476003790186629 10.869659859328467 0.0
199 2 4.219901425383255 1.0620348282673668 0.0 3.566353128054999 -13.259731430806815 0.0
200 1 6.067464285554348 7.390229836652428 0.0 9.33039433480557 -3.860671331716044 0.0
201 2 11.916416671014897 1.2104283446445772 0.0 -7.0276200308706995 -3.921593318622931 0.0
202 2 19.474373738982454 4.612819251295681 0.0 -7.4239059221735 -1.756699286927279 0.0
203 2 13.80830822332909 4.292707970191926 0.0 -2.5825125948016225 0.05735552486117396 0.0
204 1 6.399916507252836 13.50079581488045 0.0 -10.78422980878783 -4.389598837432341 0.0
205 2 5.56680060356494 18.626779535726968 0.0 -6.406369181511712 -8.654623692167574 0.0
206 1 10.597145753879992 12.693225167853726 0.0 -12.31346331486699 0.1506129712608363 0.0
207 1 5.971556131682841 5.533080083654701 0.0 -12.844977040712344 16.56789229325267 0.0
208 2 4.734397469761158 4.199414939275422 0.0 0.3172156743944132 4.180521514860825 0.0
209 1 2.5885908613746897 10.853256043064993 0.0 -12.59163124085132 -9.894255029421288 0.0
210 1 3.188209916386162 17.6895711828795 0.0 3.0518405189112183 -4.86508307396828 0.0
211 1 17.623291708364253 8.28251148803862 0.0 9.398727558037042 8.990166915598516 0.0
212 1 9.68646511129606 9.264797965492756 0.0 2.1396190022055204 17.958554329391145 0.0
213 2 13.75189773782553 9.233592080607954 0.0 4.702463114111435 0.2270725341712636 0.0
214 1 18.4868722335115 13.564515145385073 0.0 -11.780742667797501 -18.150560497336098 0.0
215 1 5.702576420732808 9.267595190210496 0.0 11.741742732306616 -0.12009379526361318 0.0
216 1 8.40392518015622 7.114964066486935 0.0 -1.9785139211201705 -9.164155067254857 0.0
217 1 14.05120439439753 8.263233968088713 0.0 5.3111295669440866 -8.118057981028587 0.0
218 1 18.98385113161522 2.27390983456533 0.0 2.754345968115538 4.23219839482326 0.0
219 1 5.736632839166736 13.785706641338647 0.0 20.895918942573257 5.3718103887898465 0.0
220 1 14.771709176914028 16.74149329496269 0.0 10.767599026117322 30.23058280580896 0.0
221 2 18.465056065682628 16.31255878377991 0.0 -2.9600435837616925 -13.958981337153874 0.0
222 2 16.8083263525517 10.717550944987865 0.0 -1.4262405758510566 -0.23730675241703217 0.0
223 1 16.16180590040302 5.985274736826457 0.0 3.2727581464143376 -0.932530525522567 0.0
224 1 0.8087124492149462 15.922188442540609 0.0 -1.615604720525447 -5.4548669119264135 0.0
225 1 3.761255014415223 9.325289878852534 0.0 -14.123648585234788 -2.579217958297877 0.0
226 1 5.839069796973589 14.411135968539476 0.0 -7.137291561566701 -6.643325988507539 0.0
227 1 5.669465965356248 19.455725287455696 0.0 -1.0964453688393778 15.064691044933896 0.0
228 1 14.28232166711539 12.870387809720876 0.0 -11.640917752679266 1.1396560424794895 0.0
229 2 9.640334526465473 8.356005995382358 0.0 -8.12288065823745 4.473987473055632 0.0
230 1 17.69057742821416 16.895262878363333 0.0 -6.758912735822752 10.712260933827018 0.0
231 1 12.87291481110126 12.151119902928636 0.0 6.626011529971235 2.792047281393113 0.0
232 2 12.474920695283496 19.29261136704696 0.0 -5.919568288167392 -5.569381024514665 0.0
233 2 8.339240116448016 2.5039655031210875 0.0 -1.7065870292657555 9.073878345277311 0.0
234 1 10.46793966679138 9.698221246047757 0.0 7.814176618308406 -10.90718740430232 0.0
235 1 2.812841795466191 9.416252157427738 0.0 6.9281752624719255 13.248346222779965 0.0
236 1 7.9740676724929305 16.80480754588971 0.0 3.64986303947391 -0.8904421883954078 0.0
237 2 17.004313542296067 5.106052802272747 0.0 -1.2513731707366778 -0.5291173431806884 0.0
238 2 12.9582990307813 0.6981468410429695 0.0 10.873876719737696 7.4321022284019795 0.0
239 1 14.091832901340258 14.12247537719722 0.0 5.52142775173241 -0.16065374041639227 0.0
240 1 3.1073647550560306 18.629871429378184 0.0 5.802646169868054 1.3150020883464573 0.0
241 1 12.121072669233003 15.509183513137817 0.0 -2.867589789646379 1.8488212569480769 0.0
242 2 6.012924722340837 10.045195019844337 0.0 -8.2533526198231 2.3989822399838987 0.0
243 1 8.308386526548237 18.83470804983337 0.0 -2.9617565012731366 19.332550804615632 0.0
244 2 18.055446592418786 4.684446318329519 0.0 -0.35597301650340113 -8.75380821535917 0.0
245 2 13.119639633755433 3.6908103313312957 0.0 -10.241517950877519 16.762888823539555 0.0
246 2 16.7185593234264 2.6969298524613907 0.0 -3.0673204711376845 -2.7378146656439424 0.0
247 1 8.74890366004605 15.009575326583532 0.0 10.547883815387236 8.488592513648527 0.0
248 2 3.7481154454811847 16.12907754668091 0.0 -4.22860821414592 6.695629671470771 0.0
249 2 10.648308498066077 18.497282860116588 0.0 -13.415908340251649 6.118656997946959 0.0
250 2 0.298583168852296 17.464454861360217 0.0 0.7201908398199556 -4.71431196148348 0.0
251 1 11.877395583701007 7.194247411807619 0.0 3.938613021371511 6.887777595107146 0.0
252 2 5.011733771668602 5.5797980868544155 0.0 0.7059483749991611 -8.76526838710641 0.0
253 1 7.902418946539476 10.381232842197331 0.0 3.065702249292717 -4.968659855927371 0.0
254 1 13.19689820278048 16.599066642002814 0.0 2.302659947500008 -12.447286989642365 0.0
255 1 18.522881243331028 11.33238976116295 0.0 5.009191242330439 -2.229390355476245 0.0
256 2 1.5122046182856879 16.684995598398395 0.0 1.2201215759914936 0.6848045836445988 0.0
257 1 9.191404049786717 6.773526827121932 0.0 3.001560216258005 -19.324109458025628 0.0
258 2 13.305294785039926 17.75060769513011 0.0 0.41606316005347727 7.849647758877631 0.0
259 2 10.610433215288515 16.468161265307902 0.0 1.164113200839305 0.8214378106765207 0.0
260 2 0.979631347391916 10.72492325242401 0.0 -2.490403667419957 -8.17031336339026 0.0
261 2 5.4580638179117384 11.113883209986309 0.0 8.135147000575792 -11.486885804639876 0.0
262 1 7.506946001675002 2.2617996718177293 0.0 -4.831681348782419 -0.07871772131496756 0.0
263 2 11.528851556825249 17.66834809319264 0.0 2.8285201301169103 -2.934764329304224 0.0
264 2 13.939478089806475 15.133013142407222 0.0 0.48820522910114117 6.964740572315806 0.0
265 1 0.6602083809392966 6.2504581205562655 0.0 19.030091105913872 4.6950201689170346 0.0
266 2 11.192639580229782 15.583312939233787 0.0 3.651268052232947 2.980068676529776 0.0
267 2 19.60198810363601 18.316214089165147 0.0 -4.8596151861114345 -7.196957239322189 0.0
268 1 2.7062179343436377 8.502216258892307 0.0 -13.874859634034097 4.470751854902331 0.0
269 2 16.44538617795753 8.235918629212891 0.0 -2.872711565191658 5.001458507637717 0.0
270 2 6.981401749561496 3.146532221450284 0.0 3.1571768065652908 1.7643955263166293 0.0
271 2 2.655173571524417 4.0421838231357645 0.0 -3.92837877486422 -3.6493742303978336 0.0
272 1 5.274576237987245 16.028529938893296 0.0 5.67091351796737 7.51323803262031 0.0
273 2 3.5389587484359692 8.101690242278057 0.0 2.493361631316065 3.420364498719064 0.0
274 2 14.379512456911883 18.688710894901945 0.0 -0.9530257118918064 -1.9252584120829033 0.0
275 1 9.458292924957114 11.496866960174495 0.0 -2.922076078185833 -14.455947642740506 0.0
276 1 6.497049566647046 5.246618460557436 0.0 9.15508616579844 -8.619743176065201 0.0
277 1 2.301463389353537 9.649607307021348 0.0 4.216949095537483 6.7400824228153535 0.0
278 2 17.023094538757157 1.6277572213583098 0.0 -9.296693110419717 -0.22759259751151883 0.0
279 1 16.214586121309043 16.288511508009588 0.0 5.157750496006537 -2.717629427933172 0.0
280 2 11.024159173431766 4.288869726474173 0.0 9.332827894473485 8.16328730052257 0.0
281 2 13.163552388945405 5.519105251313957 0.0 10.759335513950756 8.264089795536517 0.0
282 1 18.0869872078794 11.247982594077916 0.0 -13.033637548742107 -6.893859244799779 0.0
283 2 2.8033156175436664 14.492107547299897 0.0 -4.5079238749005786 -4.491613557764287 0.0
284 2 8.93039425959767 3.1201509229165176 0.0 3.6157880150409247 -2.2951780510169892 0.0
285 2 8.915001355758248 1.9042039189505504 0.0 -5.133727522857698 -3.795245183482092 0.0
286 2 0.7328763574501103 8.696316571813366 0.0 -0.8566260223842623 -8.241936258880246 0.0
287 1 19.652390347205163 15.740991296778232 0.0 1.6936629590585166 -3.476237092524795 0.0
288 1 2.7211570420034192 10.424303336572196 0.0 18.55140799902074 7.329726871551554 0.0
289 1 1.476114361546483 14.187854261618046 0.0 -12.753803212002538 10.658659617430592 0.0
290 1 11.116247235658307 2.7376858052808006 0.0 2.4906909097718417 -1.1623313429707656 0.0
291 1 12.330290710093164 9.442290231077086 0.0 -3.9290305700181625 9.620707914185195 0.0
292 2 11.948582144690027 5.433278656795924 0.0 -1.6995239208452824 12.730159202929114 0.0
293 1 16.62240087261396 6.193925449961117 0.0 -9.230307088056767 12.176823439592848 0.0
294 1 1.1796625571149406 13.557622780225843 0.0 -1.5182688383790501 1.9724419630452426 0.0
295 1 7.802705430318065 17.617284858157948 0.0 5.959049790542451 2.134126024135617 0.0
296 1 16.50408489104006 15.803870694081287 0.0 2.255195125647654 -6.796822803389362 0.0
297 1 14.107320000202508 16.363088961018647 0.0 9.964784748368679 -4.6481620145887135 0.0
298 1 2.1090334872988232 18.40939494262279 0.0 4.989443052112693 0.5973316036751842 0.0
299 2 17.839724190924514 1.9488088112254442 0.0 3.4448922869991994 10.78101986410889 0.0
300 2 19.481436999901227 12.243909319069378 0.0 0.08524166031078456 -2.902791763138125 0.0
301 2 18.67440935013495 12.730016566883906 0.0 -3.1945121624826274 1.320333973069218 0.0
302 2 2.6692497155845363 15.651938665899184 0.0 -5.817720948901499 5.698852614692484 0.0
303 2 2.44779647234283 7.637156435859133 0.0 -8.065103729604902 4.506991158655911 0.0
304 2 15.219856500196212 5.217301348340508 0.0 3.0212586093183185 0.41409843182248907 0.0
305 2 8.061475831612311 13.224025224756605 0.0 7.003668168588464 -4.215845891810968 0.0
306 2 3.642060178434436 12.215516800942657 0.0 -2.805701924526699 4.049723087704981 0.0
307 2 2.694060897873465 1.171518052276045 0.0 -8.687317134526158 -10.759649597555793 0.0
308 1 5.519810024369422 1.5915821280333908 0.0 14.219125913823362 1.7931379640946374 0.0
309 2 17.689760437377704 14.845701936703518 0.0 9.138852167260376 2.8411970373287865 0.0
310 1 17.555655775110043 11.68771728895357 0.0 -9.801326310645186 10.318106476881413 0.0
311 2 6.221071930510343 3.775675498576481 0.0 -9.050163012972074 7.228670685082585 0.0
312 1 6.446868310135887 6.548473995999268 0.0 -0.9577164633737237 6.070233236798015 0.0
313 1 3.9377316415223196 13.31521560795573 0.0 0.9810804369271624 23.00975345600766 0.0
314 2 14.19162116008111 19.6764722432357 0.0 -4.872804360469663 -4.772082525236343 0.0
315 2 0.7124718824776999 15.022519882008137 0.0 6.768147162629424 -4.936553306915529 0.0
316 1 8.78848877301314 15.78869004574101 0.0 -7.97611451775227 4.278971673577807 0.0
317 2 17.00957721608659 17.4856394007822 0.0 -2.0026815278048793 1.275592241485803 0.0
318 2 6.255880147764755 2.634450084245065 0.0 -6.905993541918825 5.125815296665463 0.0
319 1 17.588000129822618 12.330909664839357 0.0 2.116946156550552 0.2781741690823482 0.0
320 2 19.331652595607228 6.0762221160381475 0.0 -9.739612809955087 2.3651849749642673 0.0
321 1 9.643577580581352 6.352987344816338 0.0 -3.1497561514371077 -6.164480757152918 0.0
322 1 9.454661656202665 19.67757438950247 0.0 16.750674738786454 -5.4915075153195065 0.0
323 1 15.88048326821186 17.863900571597124 0.0 -6.840869957157524 1.7119589110037312 0.0
324 2 3.471101662919185 0.12263082012747048 0.0 -11.860729929013166 -0.2614889033382066 0.0
325 1 14.996473074800885 11.714263400471262 0.0 -8.80215445698093 -9.422161776285805 0.0
326 1 18.958305526580993 0.39214654797880105 0.0 3.8883523917227127 -9.138803391911843 0.0
327 2 16.084907729849487 14.260557214222368 0.0 0.26418918520459383 -15.846730738379994 0.0
328 1 0.1097657853441693 5.385661398373984 0.0 -13.79221378552787 -1.981358844914067 0.0
329 1 0.620695245230616 18.51236172680489 0.0 -3.8527089421607825 7.541787463773371 0.0
330 2 2.6835334733974663 16.594973627297428 0.0 -1.2168977442359707 7.141769726983003 0.0
331 2 10.675351645357921 6.655827612573404 0.0 -0.9940465553833778 -13.43345171507211 0.0
332 2 2.256770782114278 3.0031503485014115 0.0 -2.3380994162388467 4.871260550058932 0.0
333 1 11.848834891322705 13.551108819363705 0.0 1.5567530876731275 4.353646583732863 0.0
334 1 11.700178741800054 16.45231418440847 0.0 5.209339869795295 8.63209622967135 0.0
335 1 15.295236814703317 9.222497445541878 0.0 -10.637380433814696 5.082207214582653 0.0
336 1 18.31921160080488 6.422742300520401 0.0 -6.213187677698242 4.985707125857364 0.0
337 2 16.095225297124827 18.953111088887496 0.0 2.4804819359343635 -4.98405656315827 0.0