ITEM: TIMESTEP
0
ITEM: NUMBER OF ATOMS
400
ITEM: BOX BOUNDS xy xz yz pp pp pp
0.0 19.7609 0.0
0.0 19.7609 0.0
0.0 10.0 0.0
ITEM: ATOMS id type x y z vx vy vz
1 1 4.901949383938247 14.827894716232912 0.0 -16.01154162468289 16.298717599503522 0.0
2 2 16.46689713241477 5.344323732375832 0.0 1.0759310707686098 -3.410606035650297 0.0
3 1 14.847074611619652 10.494210459032061 0.0 6.45570296308447 -12.866752338605231 0.0
4 1 8.69299709518894 6.958385046258927 0.0 -7.819012655223941 -11.957510755322195 0.0
5 1 16.132022363416294 15.29993948954064 0.0 0.34466333145601363 12.51129029456701 0.0
6 2 0.35128345930565436 10.547825304891997 0.0 -5.770586568614148 -6.629415868259244 0.0
7 2 9.33623775432295 14.72649765003006 0.0 11.109516382481514 6.924710836538795 0.0
8 1 14.37130599483657 19.003647395738515 0.0 -5.076179128134276 3.988255669116133 0.0
9 2 10.20034920340869 16.315221394136707 0.0 4.898026465882836 -3.739724620579966 0.0
10 1 15.558262130214898 2.0545734418428787 0.0 4.500248856758166 -3.3554178813291258 0.0
11 2 4.544794487604409 14.04267433107698 0.0 -1.7282690789552353 -1.2461132624000568 0.0
12 1 7.873578328960278 6.789585471160048 0.0 -20.67615335437913 -8.565049525247504 0.0
13 2 12.014055087961301 18.094194684328766 0.0 -15.065097012910057 -7.882973884313599 0.0
14 2 11.886984364247473 4.540670125169655 0.0 -7.436546324156025 -5.663514750505749 0.0
15 2 15.664326810823948 7.611359166513928 0.0 -4.150834543573309 -7.4434910735546715 0.0
16 1 10.932403096409718 19.36656567827753 0.0 4.4429613224778794 -1.8213137993285164 0.0
17 1 4.083518196779179 11.448154153175993 0.0 -8.394448628135066 8.672081979399763 0.0
18 2 16.520171788192712 1.8729550330205595 0.0 -11.220330471480217 -3.7355884224929436 0.0
19 1 5.546338217674806 6.621447300876847 0.0 3.3425180166531083 2.7156812431625976 0.0
20 1 3.307601840753509 7.709170574912355 0.0 5.398586341260696 10.958457482279993 0.0
21 1 3.7313746051746977 3.8543104262315286 0.0 8.771094123636113 -11.26185068420719 0.0
22 2 18.070240374151304 19.130487553271237 0.0 2.2546484355681327 -7.815323401342324 0.0
23 1 13.262511949893657 7.0292087946044886 0.0 9.947714751172775 8.418195645259832 0.0
24 1 11.680673822581651 0.7221359365753401 0.0 -0.09981085969262755 8.586746303938806 0.0
25 1 3.734605329634135 14.936725904673171 0.0 1.4215061327623024 9.817119795851873 0.0
26 1 3.5072657186085925 14.151399110459371 0.0 -15.046470168388712 -11.78649685090493 0.0
27 1 8.893514556923419 2.72789173461211 0.0 -0.922855558153994 -7.273000189159123 0.0
28 1 5.885898489226525 8.801439108598034 0.0 -11.776213867768636 -11.696270381405219 0.0
29 2 14.780656910497132 17.769029021498724 0.0 -10.30625209572706 -7.966540046523296 0.0
30 1 8.361811498635685 7.480034060155726 0.0 0.026585725827955937 -13.34234922493335 0.0
31 1 10.862226368793317 2.887995038534768 0.0 7.121009920059078 0.24269430638225883 0.0
32 2 12.658711739346847 11.68507204636525 0.0 4.675174004087042 1.0434037211303566 0.0
33 1 8.977081772564825 4.869241593705882 0.0 -5.825572216235081 6.810229599116518 0.0
34 1 3.410963042860987 4.725137834330225 0.0 8.303084026124713 -3.870383567371508 0.0
35 1 11.368814801156704 10.938798218979436 0.0 -4.411601216827439 1.7294626346809596 0.0
36 2 6.257050774828743 5.7717271576163505 0.0 -5.654135136713191 14.863054748297937 0.0
37 1 7.746076511010386 9.850927409895355 0.0 -1.826909626120821 -4.5779870000396645 0.0
38 2 0.23508682419622853 18.64397416405131 0.0 -10.676377718847567 6.030987693642065 0.0
39 2 10.86008717516732 13.425220726348671 0.0 3.0581025265773727 -16.174205735378155 0.0
40 1 11.012782020788494 1.8467593303684016 0.0 7.400139892658588 5.010195888303511 0.0
41 2 17.853030432704287 6.735023462467832 0.0 4.1871038172328205 6.9228639393333165 0.0
42 1 11.300776505553184 8.08031584923936 0.0 -17.219170314946332 15.224599914772554 0.0
43 1 11.712083186188996 2.013930146067253 0.0 -0.8300095511880948 8.568490547504956 0.0
44 2 17.32272379835652 13.833278131546923 0.0 -2.6393517426890187 -0.011051571239114742 0.0
45 1 10.527276854862109 10.620571019865745 0.0 -7.112139653393222 9.08705645452393 0.0
46 1 11.82977126800869 11.159114681955275 0.0 -3.968195699178256 -0.4258376690351288 0.0
47 2 15.89641128698819 19.156697374899192 0.0 -3.985378857929136 0.7590563579331925 0.0
48 2 9.46517206420581 6.762975210611488 0.0 6.255455698132368 0.6325842045733631 0.0
49 1 9.242858730892548 16.289036290109184 0.0 -10.163182848512713 7.148287278143199 0.0
50 2 13.732799043285308 0.7028854559170802 0.0 -4.005280421714246 -8.412982853222768 0.0
51 1 5.97720344168512 10.58714350575561 0.0 1.2053062357052529 -10.027389664980333 0.0
52 2 13.54369825962463 17.032466754901108 0.0 -1.6934249162491164 -3.4238010960356666 0.0
53 2 16.430561901441877 3.7250188793336276 0.0 -0.989541890793869 -4.243851201018864 0.0
54 1 4.933276250170606 3.504939992080892 0.0 -11.610048694361733 -15.907962157445876 0.0
55 1 5.1112366904432 9.168134015994276 0.0 2.2709210991483735 2.7292603891044998 0.0
56 1 15.026311349418924 0.8042603962912802 0.0 -6.303615206887926 13.332037216621577 0.0
57 1 14.999434043968686 18.571992967956163 0.0 11.089016417093244 5.571191300885362 0.0
58 2 15.906190379896293 18.158155901820383 0.0 0.09285103514687482 1.3873698278155588 0.0
59 2 0.3330731880872215 11.987158842898804 0.0 -3.667471643389507 3.7274054664846172 0.0
60 1 12.127740237055296 14.992247595841805 0.0 -11.393587437532705 -10.038850676588254 0.0
61 2 13.934192819501854 14.919953612888149 0.0 -1.1349131638177707 2.0872519596867716 0.0
62 1 19.13252116792412 15.940334410134337 0.0 8.813977166912212 -17.101148273962217 0.0
63 1 10.403294990829828 3.784941904434777 0.0 -7.937115199560241 -6.486453962181705 0.0
64 2 13.126355997529618 15.041867775313609 0.0 6.724741608027983 3.8980769799461465 0.0
65 1 17.995081721564315 0.6919683476398014 0.0 -8.412537105779133 -2.4297401664320897 0.0
66 2 10.280442425946607 2.041161400638342 0.0 5.796597184240533 1.2911195639547535 0.0
67 1 0.30272910806067926 9.184419515747807 0.0 -5.32121201939874 -8.091280050783036 0.0
68 2 7.239684054136911 12.515061973275369 0.0 -8.01939127008732 8.122318930885585 0.0
69 2 13.25272183456189 10.50785150087347 0.0 0.10624813294296892 0.7004546156872246 0.0
70 1 7.790764790761634 3.0479806046198616 0.0 -8.53380227398106 -22.443835071314204 0.0
71 1 13.864067017075428 6.032390786232834 0.0 -2.5072843538706477 8.530053118059575 0.0
72 1 2.0777952006798293 3.8133214667013138 0.0 7.192411042876172 2.6241716200647955 0.0
73 1 7.285459717345844 19.31670680175518 0.0 -10.858133700438069 8.7504006904793 0.0
74 1 3.2449202586316335 1.4452899088538729 0.0 6.835540992462139 -1.2128445989150025 0.0
75 2 3.0942824997087475 2.666011725004036 0.0 -8.21177923784013 4.569703582571451 0.0
76 1 3.3467443549178255 9.520670290751719 0.0 4.212418910837175 -1.0998823489507048 0.0
77 1 1.830298234226495 0.3526092770413785 0.0 6.011894647446488 -17.82684278535344 0.0
78 2 2.336191609204327 16.75275493785434 0.0 -4.350194102560218 -1.5880294450981933 0.0
79 1 10.899549146990056 7.086961538872096 0.0 10.446734201249335 10.744317996581328 0.0
80 2 15.560900882185258 17.185872932804564 0.0 3.490671033384335 -2.90023184856694 0.0
81 1 8.868192629385218 9.142213355877766 0.0 -8.20451820944843 -10.295135202145266 0.0
82 2 8.939849280623598 1.6082696260942992 0.0 -4.443310728082079 9.416501836917197 0.0
83 1 17.022778157466767 18.88516351081257 0.0 8.286266987242135 6.3273695919161295 0.0
84 2 4.507385348410031 18.298847572482018 0.0 5.2796985842624995 -2.7010057050463043 0.0
85 1 9.944188048926168 4.137418898973908 0.0 3.723650635077896 -7.7696833385152795 0.0
86 1 8.147220458178975 9.331312622345056 0.0 -13.599666615895474 -6.343299330701927 0.0
87 1 13.432484928693325 4.973567732525793 0.0 20.931460899730823 9.303504650729328 0.0
88 2 6.983272439706641 10.033355188429052 0.0 13.19180591741063 -3.0596765089179625 0.0
89 1 17.64200694938484 12.836981258426045 0.0 6.683563717788171 3.28682545463219 0.0
90 2 15.509631598359993 13.74468179774383 0.0 3.416235035218909 -3.594662225438661 0.0
91 2 9.674993476404234 11.12580360130748 0.0 4.757198175591606 -5.187663568260754 0.0
92 1 2.1913929446837357 1.3316705957189248 0.0 0.9794234330560919 -7.3195743542630245 0.0
93 1 3.1480504283891078 16.863989291023408 0.0 2.128529305219146 -16.41617258588105 0.0
94 1 11.925886467597213 1.5376482100287958 0.0 -11.651288572396707 9.234370311762783 0.0
95 2 18.04963297233488 17.297581946829496 0.0 2.14846497199504 0.6668472060964308 0.0
96 2 2.1800828784440913 5.92921246748155 0.0 -6.4774641056045335 1.993025746778637 0.0
97 1 19.242409958134534 18.892539795778045 0.0 7.522480506366361 -4.171362569235392 0.0
98 2 7.894089713604136 16.481902170838005 0.0 10.553400974870375 -1.3882504578479642 0.0
99 1 16.857673535833587 18.369438121627773 0.0 -8.418968700136043 20.965447944220678 0.0
100 1 14.9755612808577 8.773698398000809 0.0 2.135368406116221 3.9442723095460868 0.0
101 1 19.58701712325015 9.460257869579197 0.0 -13.584479467340909 -0.855904755024056 0.0
102 1 12.269157120180902 10.713224568252395 0.0 9.25013498862517 -6.7625386426185585 0.0
103 1 18.72426332378724 16.640330632245483 0.0 6.152431749682134 5.325723436757781 0.0
104 2 16.772992604693847 9.58300196293491 0.0 0.7392170445500096 10.077015008710752 0.0
105 1 9.40616320786345 19.28254101955831 0.0 12.692302296935944 -5.481365831924048 0.0
106 1 13.08231228685805 13.481288085669542 0.0 3.937480130588583 -1.0000345364216296 0.0
107 1 19.48632649913573 8.577514363952648 0.0 3.3777238674040726 -0.44477062266898143 0.0
108 2 13.243642490608746 7.993541868598853 0.0 -0.4928964372892005 0.27399034660160615 0.0
109 1 1.2389308608055083 3.918265495270134 0.0 -0.8594989059397918 4.54707745664052 0.0
110 2 7.969287982919701 13.043446031253849 0.0 -7.510766106487277 -0.3349858915633029 0.0
111 1 3.788535145318306 13.152460552937123 0.0 0.30409648439952774 8.432831178326646 0.0
112 1 17.856978416729557 3.411574072655778 0.0 -1.9891466376978182 -4.047849638562984 0.0
113 1 17.885123463749053 4.580591251412506 0.0 -2.8696678683625336 -11.896075424380367 0.0
114 1 6.887225742998087 19.70723619397469 0.0 0.2650960191184948 6.8975515854808656 0.0
115 1 11.11997957647208 8.918814769712286 0.0 2.378529379181633 22.630755562115322 0.0
116 2 9.869768445328434 18.006451474728234 0.0 7.697083654629711 -4.072942827913676 0.0
117 2 9.259515784809004 10.09739759966078 0.0 8.760677413742922 9.484776993553629 0.0
118 1 16.011044608705028 6.271068863424139 0.0 -18.609223282002482 0.22535492354391606 0.0
119 1 7.75703936983492 2.4445669727466544 0.0 0.18897777758221976 2.887984613501673 0.0
120 2 0.23177401119939453 0.38625615186154777 0.0 2.2999961777997604 1.0153126476330596 0.0
121 2 4.381139422798418 2.998880150237028 0.0 -8.057422035011406 -7.231956952091091 0.0
122 1 15.615578231076542 1.3382357264576552 0.0 12.62820163727184 7.104948128110003 0.0
123 2 18.701447814479756 2.938129448906858 0.0 -0.09221193089672687 9.841747860040478 0.0
124 2 3.5641346449011726 16.26111903666509 0.0 10.822359089686893 -5.724103958809942 0.0
125 2 3.9807602045010104 19.11175118829377 0.0 6.173420057781574 5.049046874345912 0.0
126 2 7.296530449535079 15.784672771734888 0.0 -15.036829585732862 4.221168082430829 0.0
127 2 12.0188718296401 13.76423763638928 0.0 -2.295029919654368 -1.7834828874207922 0.0
128 2 13.877166974208833 9.572955740577404 0.0 -1.880029846607682 4.929239839935879 0.0
129 2 19.49124051871803 11.207005587529956 0.0 0.7914011985752977 -1.479843089163764 0.0
130 1 8.84748393736048 16.952279015612277 0.0 7.724794666035459 5.989676635011492 0.0
131 1 15.334724328825141 10.518034575513774 0.0 6.456547310340942 4.880527654844675 0.0
132 1 18.67405668933733 16.175047909917566 0.0 -9.896435301919214 19.6932106731131 0.0
133 2 11.577073977938664 12.719263678350368 0.0 -2.372601286816031 -0.7004114657544349 0.0
134 2 14.76720973164434 13.156939044893761 0.0 6.820705252253349 6.291542672809886 0.0
135 2 2.729984589407813 9.029431015723345 0.0 -2.226387140023947 -1.4467726730533255 0.0
136 1 14.054030773166627 14.086747069482367 0.0 2.697596919786775 -0.3228009734513268 0.0
137 2 11.913658376228389 3.161494854424873 0.0 -2.615317939364073 7.2644977803219355 0.0
138 1 12.626244146322387 8.779677051365892 0.0 8.471598551902401 -6.147901662796781 0.0
139 1 14.013970955616042 3.012544931656938 0.0 7.765794369598424 -3.1275347091457593 0.0
140 2 10.028966048583197 9.263513078114274 0.0 5.040982683927564 -4.403188697124433 0.0
141 2 18.81413214211781 9.29706146382013 0.0 8.964945616254004 1.6421435037687608 0.0
142 2 0.23355642770056806 5.393037818195087 0.0 -3.847893382762485 4.495406108488339 0.0
143 1 2.7066000271338377 12.447093998163894 0.0 -4.267922481958598 -17.4873833509554 0.0
144 1 19.24189788141589 8.075162788559812 0.0 2.96185503836819 1.902233113804704 0.0
145 1 19.042779678709987 15.466809588938197 0.0 5.31411896304581 5.005471564875438 0.0
146 2 2.824059549566527 19.184465267742247 0.0 1.9241332852401898 -2.3534671978853745 0.0
147 2 7.881984254236632 14.908112701369747 0.0 5.097814293200409 -10.765413675374615 0.0
148 2 1.6666266396365128 11.99461925964749 0.0 3.0395741376257175 -9.03647456537218 0.0
149 2 16.94811091018425 11.96603840105463 0.0 -0.316235270184084 -1.7734436077583375 0.0
150 2 1.7616620601749677 17.413112441901863 0.0 0.4668107982724973 -3.4383883066336467 0.0
151 2 12.579038085809106 9.561992690553422 0.0 -3.640789846608855 15.636196014620987 0.0
152 1 11.578775218578272 9.577119442297379 0.0 -1.8532058914426461 -0.5310215746808702 0.0
153 2 2.713260293107532 10.410063710440474 0.0 -10.700876215467298 -7.364357350142685 0.0
154 2 12.54706561614948 12.668391480678554 0.0 -2.5286003400681705 -7.480944978516043 0.0
155 1 12.464399954748137 19.252705292229045 0.0 -2.545507046882157 0.28018863878484 0.0
156 1 18.531923974485483 11.747527207161676 0.0 -5.4136670759231835 -3.1326252036335593 0.0
157 2 5.638832169822046 5.1194060458551105 0.0 2.329451426339659 6.7889058207917 0.0
158 2 0.5203401154385228 1.3628076237101105 0.0 11.417245986767634 -9.255652649760766 0.0
159 1 17.220040183562915 17.59150025504486 0.0 12.278949252299284 10.563867972897002 0.0
160 1 17.869694782414467 15.14170066291004 0.0 0.05383997672249742 7.476315190695651 0.0
161 2 18.64790633870631 3.910682059308471 0.0 -1.9297442230843156 0.047471428587816944 0.0
162 1 5.998492204079473 9.890188822528026 0.0 4.322626634508626 13.922877356775368 0.0
163 2 7.8889930405400515 5.32450112561272 0.0 -3.025574245263883 2.705024612471072 0.0
164 1 1.449583818446089 16.4228704286192 0.0 17.27246395451916 12.323503807615177 0.0
165 2 16.222755517972953 0.6980460102094354 0.0 7.600147342425325 3.034820352001202 0.0
166 1 1.2855077706738633 0.31268457986342546 0.0 2.703533218855873 5.8905637236673885 0.0
167 2 16.240573521680233 14.205856475256672 0.0 0.48683767481346796 12.293415954981251 0.0
168 1 11.201324518442954 2.496106632420154 0.0 16.44492233221565 4.432778661176705 0.0
169 1 6.751883258462807 18.49118126951859 0.0 -5.944421428245674 0.00595255307015284 0.0
170 1 14.446008616940935 7.384532385698578 0.0 7.8167553419263704 -4.629775163349182 0.0
171 1 9.398635769793803 17.255944787414233 0.0 -7.060960188614064 -5.651463212816536 0.0
172 1 10.956352354898694 4.688977786401818 0.0 -3.058165576309726 2.4375590793127535 0.0
173 2 0.47408653550734337 4.0383995093995875 0.0 7.18841148978599 -7.912057887265271 0.0
174 1 6.982817206893473 2.3606847964124964 0.0 2.460748801457224 -5.023733004991623 0.0
175 2 0.5085530373220053 12.739877343464299 0.0 -5.155641786512013 7.582570746047547 0.0
176 2 11.702363024687282 15.790847359893915 0.0 9.469398915458978 -4.248058324862238 0.0
177 1 9.655926724359446 0.12627196711544056 0.0 -7.5078345849663135 4.415524369297458 0.0
178 1 3.735594573017903 6.647695331662962 0.0 1.130014103250007 -2.029444967144333 0.0
179 2 5.742230988644287 15.473865954396949 0.0 -3.3331225336942008 -4.603135629825772 0.0
180 2 17.43749838535191 1.323394110112436 0.0 -8.789208653602001 5.982293648099402 0.0
181 1 10.69981426040478 4.209184754930205 0.0 0.7871388562520664 11.833122765190362 0.0
182 2 10.630698193071161 15.53079470743326 0.0 5.716738060879082 -1.2508228645447494 0.0
183 1 15.114386028673783 1.9099870835097013 0.0 0.8722006817812741 11.13600783885467 0.0
184 1 10.421550462833231 12.678497796975753 0.0 2.913048907791005 -1.3548986973093486 0.0
185 1 6.02342254971998 4.389978916710078 0.0 2.4051735883177736 6.030309295571791 0.0
186 1 9.504758430290465 8.516623513878084 0.0 -6.725034208824605 6.473591496351973 0.0
187 1 17.47997247140695 2.4688306640383857 0.0 0.0217894522423885 -3.338619823630275 0.0
188 1 18.48065888054019 15.16341723814631 0.0 2.329930665282763 -10.118740576463741 0.0
189 2 19.275926364520835 12.601150818412163 0.0 0.2554984721161527 -5.72346211693363 0.0
190 1 1.899432813105357 7.64111414981589 0.0 0.43130988872487913 -10.597665930441986 0.0
191 2 15.099431745028715 6.63553271107372 0.0 -8.482528297575433 -0.1895923304802407 0.0
192 2 16.77971825484243 12.944605584816005 0.0 -7.50245428721063 -4.599853378604641 0.0
193 1 9.254734022456061 4.01631447336256 0.0 8.119124803145517 -11.472438870564789 0.0
194 1 10.970413207460867 16.198389029724982 0.0 -0.2560500125691009 -1.4153140446041095 0.0
195 2 6.720547363427895 6.508501117487682 0.0 -1.6102914303132003 -5.72789492284537 0.0
196 1 5.95665693384893 19.225838184313876 0.0 -11.839113580836159 18.526963206388913 0.0
197 1 11.637112296536758 16.712123380642566 0.0 7.527387563828851 -4.1313023033990275 0.0
198 2 12.754829044266227 2.032957821235151 0.0 8.399815879238092 -5.998636880889828 0.0
199 2 19.05725266484599 4.936361453764435 0.0 -2.4316933216510006 -3.3803020388417946 0.0
200 1 3.017755591089143 11.470482614143132 0.0 5.845252266370246 4.246394446757797 0.0
201 2 18.19598238255628 7.822308278393297 0.0 -2.1424635954656877 1.5814993671023636 0.0
202 2 18.981370097265607 17.877042831526094 0.0 -1.4247608544153068 4.2295162273076095 0.0
203 2 3.4533408499439404 17.5841459396804 0.0 -3.4592412589537416 1.0102967030100043 0.0
204 1 14.251810239952217 4.698550402690932 0.0 -14.612697063421857 -0.18980760588614415 0.0
205 2 12.477205519291484 16.887736950784355 0.0 -1.5799851018889 -5.75583313062754 0.0
206 1 5.291801066747476 10.224813448488833 0.0 -7.8493655438938035 -7.216528156879841 0.0
207 1 3.3097371572404106 15.434116910122624 0.0 5.909110465672795 -2.9749903179293136 0.0
208 2 9.231217468392366 13.61310954208069 0.0 -2.8320816227694228 10.090014315010022 0.0
209 1 19.755110907596418 17.7544409986531 0.0 0.14832227794903724 13.442164408188892 0.0
210 1 9.018866201228564 12.639591038708382 0.0 1.4031532370909259 -7.342992168946281 0.0
211 1 7.352383098248436 18.905717627223115 0.0 -2.261202648779077 1.2160415648973275 0.0
212 1 10.160251678832761 3.21496523126003 0.0 5.118352784611116 2.624459316656231 0.0
213 2 0.40552257322275664 14.729452261826193 0.0 -8.060438887863715 1.584149917350138 0.0
214 1 19.505138452615313 1.5267610392117652 0.0 -13.113189081167011 -0.17513095175983734 0.0
215 1 8.402661244145971 2.410009293180503 0.0 -4.306009749054287 0.9032524113707459 0.0
216 1 8.78756569769964 3.7273935312597435 0.0 3.571896828340909 -5.753210219228883 0.0
217 1 5.3041962750553 7.413214368339983 0.0 17.004813928337402 -19.730166122555104 0.0
218 1 16.657564106900523 10.462146055787436 0.0 -5.794820121189317 -6.941027318603074 0.0
219 1 1.3497869534333498 2.3470835760797435 0.0 14.96837829092592 7.268663739650058 0.0
220 1 10.209771206672091 19.302716916945535 0.0 10.702957465913336 -14.731905537661238 0.0
221 2 7.041197515134795 13.989906748143033 0.0 -7.561613361229519 -3.5030503994039215 0.0
222 2 6.961730681434636 11.091914593834483 0.0 -1.1572488320127081 -2.605186762909236 0.0
223 1 1.6082872584448773 7.179040778270874 0.0 9.051824093834991 2.1204143337047263 0.0
224 1 1.8453209509358652 0.8151579231975509 0.0 -11.816452052827232 -3.2818623522226864 0.0
225 1 8.382609389110597 12.030883398352575 0.0 3.0612368298899475 -5.081034538150137 0.0
226 1 17.083320087467683 6.453771617836868 0.0 7.055870921864723 9.615394617703243 0.0
227 1 7.637682131962038 8.470527524430972 0.0 -3.96032528398711 -2.1304081340670384 0.0
228 1 18.154901474218832 2.0176577722420417 0.0 -10.064948137807148 8.505082716568548 0.0
229 2 1.4404336402058429 18.718690324542813 0.0 -4.602958249519768 -6.998738265474173 0.0
230 1 6.056596539507279 14.64423351500351 0.0 2.131621377145635 0.25774288333427003 0.0
231 1 1.9378997259882154 9.044274539326942 0.0 13.05934667940047 2.7718945188207127 0.0
232 2 6.380710263684883 12.198863522003993 0.0 0.3279165867606555 1.3831998782064874 0.0
233 2 8.007215738305637 1.3239003483665281 0.0 -6.5790800282221475 7.589166609138051 0.0
234 1 14.608888231048667 2.266965263054668 0.0 2.0495959663570025 0.6037955343616874 0.0
235 1 11.031785568020396 9.869319819999083 0.0 -1.418751097926177 13.802455246345115 0.0
236 1 19.584877859532746 13.454755299253899 0.0 -0.429632645278883 -1.2569787091940647 0.0
237 2 13.977686707611994 16.17748284807261 0.0 0.5709334993332793 -10.714088395311908 0.0
238 2 7.744931330493646 4.429166895777474 0.0 -4.196381346625817 -1.8132255442042498 0.0
239 1 17.438519050921006 16.532805255541838 0.0 -3.3688558228220673 3.948478153466609 0.0
240 1 13.482888374401082 19.677849926504695 0.0 1.098932459202534 10.831761483052718 0.0
241 1 1.510936021989907 3.2855360052897975 0.0 4.420834580488654 -12.575342405056814 0.0
242 2 4.075738542519633 8.998049206349293 0.0 9.398423459081858 6.462254879691199 0.0
243 1 3.609839170579516 1.8047216663623948 0.0 6.390800818615317 14.94011351768713 0.0
244 2 5.249829655191719 16.503134788087092 0.0 -4.257849975202886 -14.101821009451475 0.0
245 2 0.1098956252637271 3.07316349578624 0.0 1.2388966845046876 -10.147220793551718 0.0
246 2 8.78633194421398 0.5185748124242595 0.0 -1.8446291947422024 12.307505590883755 0.0
247 1 1.379942007226477 15.118910362863456 0.0 26.17810247926556 -10.379475020915459 0.0
248 2 0.4294679246241205 15.719264672029684 0.0 -2.6152202432178173 12.455893230111222 0.0
249 2 12.893356198002149 0.8848310686515801 0.0 -4.985309683306211 10.908375092559988 0.0
250 2 15.198673556850874 14.701828775128867 0.0 13.882935560443213 -0.24093312057535046 0.0
251 1 2.3082442855373393 9.737256424355705 0.0 -5.232815048336142 12.393964280832282 0.0
252 2 18.638000005139567 10.590709087933462 0.0 -2.524671028192769 3.106409275668696 0.0
253 1 5.980580460740387 2.8608271697615724 0.0 -14.748820168520215 0.5562387398572313 0.0
254 1 7.824752413870724 7.832246127027602 0.0 5.67109108817936 12.793225803300723 0.0
255 1 5.551127681544417 14.409155531548329 0.0 -1.8951259168679746 7.853426767197836 0.0
256 2 15.831456007645938 12.4072913965062 0.0 -1.300677050679459 6.941947638418973 0.0
257 1 16.634893509531786 6.4240338073760315 0.0 1.1481876747771775 -4.710961263853974 0.0
258 2 14.129513195712747 1.5735561427232763 0.0 -6.130747628203281 3.3800445746635024 0.0
259 2 8.409677430749493 14.13881163445583 0.0 -6.228722741190126 -9.926675580900321 0.0
260 2 15.672580716691032 9.287343917339166 0.0 -2.1074529223276284 5.600013103609621 0.0
261 2 8.53518000267135 5.983094722971783 0.0 0.32284590604147856 -6.762741630017243 0.0
262 1 2.823552546895637 5.026223311889204 0.0 3.867471359736383 4.558163697375948 0.0
263 2 5.242696897577894 1.8372723864131708 0.0 -11.781423950309703 2.1765191431036506 0.0
264 2 9.519613572672839 7.759580730349893 0.0 -7.004567757362109 -5.9562320473711114 0.0
265 1 3.33731949805789 0.09336188324306556 0.0 16.870862467152012 3.697218277249055 0.0
266 2 5.279014545208317 13.294361093477846 0.0 7.138239697266297 7.7540232916583 0.0
267 2 1.2452334814168555 13.532987907790945 0.0 5.815502641169593 -6.102448575751821 0.0
268 1 15.986948272789771 15.783068123757726 0.0 -2.632709382395583 -2.8428052281928724 0.0
269 2 17.061108767193332 14.87636241856509 0.0 -4.426307905047206 -0.04638618908739366 0.0
270 2 4.659930996672674 4.399636948849964 0.0 5.838550180552383 -6.789184276090991 0.0
271 2 10.644893640886451 0.4081928121232561 0.0 -10.915910836525372 2.1834229208270615 0.0
272 1 16.93783462280786 3.0610701860244447 0.0 -1.6284352484769307 0.6960298390868245 0.0
273 2 6.915414432995707 1.5663221075934763 0.0 -0.8188992878205708 6.3444383070528705 0.0
274 2 14.936150946906917 5.350089024799529 0.0 -3.887265377600748 0.05517977884412126 0.0
275 1 17.71677527927453 2.837857599548916 0.0 -1.101392034037574 4.307645675666352 0.0
276 1 14.54769584625952 6.049313226429277 0.0 6.106491580638862 1.890073001237792 0.0
277 1 13.019521807884257 4.758091102528686 0.0 12.808797412873707 1.4422490790080487 0.0
278 2 10.200267876878474 14.64832958360116 0.0 -5.671654465701669 -1.6293988989959234 0.0
279 1 6.082733992601894 7.635070389793559 0.0 2.3827969121549724 -10.06662825512847 0.0
280 2 3.14681405083084 5.926332102760899 0.0 3.840164712379751 -5.429078318835088 0.0
281 2 18.824264907255156 0.4198035219506532 0.0 -8.478797026250078 7.750428493229544 0.0
282 1 2.4803845390861556 7.387728137303534 0.0 5.127103038209613 -5.980999323378658 0.0
283 2 14.067071976216294 3.793428625446522 0.0 8.862535159531934 -3.9670108114385196 0.0
284 2 2.4990797755218606 15.090394442895127 0.0 3.15155303119389 -0.15482989211663709 0.0
285 2 17.39674295213458 8.455219865209303 0.0 -0.4099171345719054 -0.9107205315918291 0.0
286 2 14.455826919428535 11.950925803575654 0.0 -5.547353915010529 1.2287290451087305 0.0
287 1 11.662863847092813 10.099788380535895 0.0 -0.05099810346360581 11.759588451661584 0.0
288 1 4.170284714306525 1.0794075118382582 0.0 -3.8227281705286384 14.501828993311083 0.0
289 1 4.7135928542437 15.37887549722898 0.0 7.260588233691609 -5.269831893278772 0.0
290 1 12.294924317424732 0.16337242179577954 0.0 7.353788507604996 4.328933340369852 0.0
291 1 2.197161182129597 18.716827386658743 0.0 -13.433214243925413 -6.139961010694212 0.0
292 2 16.719176896635798 16.341282492665698 0.0 1.8598597087745707 -2.7288989975774016 0.0
293 1 9.53134586678109 4.903853258011422 0.0 -1.2984307225306442 4.682870036969129 0.0
294 1 3.732862074872611 4.43220570175459 0.0 -8.733562584335685 2.2200572126811697 0.0
295 1 12.60590136529189 6.842195896528664 0.0 7.420408890708369 18.57935754086114 0.0
296 1 1.2626457280195613 15.809797011347092 0.0 -6.810271123651434 -1.4190765292808287 0.0
297 1 10.53751600411479 1.275953706728331 0.0 -2.4969161425955826 -14.968466453474461 0.0
298 1 3.574460103735753 10.74025570688317 0.0 6.649822172832682 -4.336664827284801 0.0
299 2 12.572713013885995 3.934037774428068 0.0 1.438614494819511 -0.3672578668027103 0.0
300 2 5.679388621947047 3.6018178016701623 0.0 2.4110588292732746 -6.3353533088772025 0.0
301 2 5.9092607165597615 17.27174331816087 0.0 1.8704677158770004 6.508652511653 0.0
302 2 17.473566534814008 5.424049279713412 0.0 -8.32977542790536 -9.0156855372507 0.0
303 2 7.932024778048788 17.517288931558102 0.0 1.5650398893620658 -6.653556783936246 0.0
304 2 4.109653712744734 5.228154637504871 0.0 3.0730953643463694 -8.693358484518065 0.0
305 2 11.094674079137363 14.605614561048533 0.0 -3.917195765884191 3.352113665011772 0.0
306 2 18.35815851711634 13.186202147677188 0.0 3.8189900155385836 -6.9225281654143345 0.0
307 2 9.900489534244635 12.04625890615782 0.0 -5.940805010172686 0.13427396081505566 0.0
308 1 17.336688760531867 7.6761041904495855 0.0 2.5754566247625257 -1.206777290784546 0.0
309 2 17.286017658819297 0.3586970504722778 0.0 7.338084547100016 6.019845007520874 0.0
310 1 7.891202945662352 0.35741096824445756 0.0 10.716282400516915 2.5265001476902382 0.0
311 2 4.670958410064641 6.113008260535357 0.0 1.58200383879277 3.8765961911830162 0.0
312 1 7.3287473049385925 0.642337078415707 0.0 -10.660244905996342 -12.598365444824607 0.0
313 1 16.76631115642125 4.5680455320982505 0.0 -2.443246523602256 -7.478790820979851 0.0
314 2 18.25139761089601 14.159829760316152 0.0 0.9142642757516684 -0.37809795270897245 0.0
315 2 4.366144188313382 7.195773760611802 0.0 0.49934089953479777 -2.8402029403693705 0.0
316 1 13.208787892649198 6.503008368308778 0.0 4.5250208127887825 4.379330763858544 0.0
317 2 6.688524113296102 15.156410287516067 0.0 -4.164313211208558 -2.4454747989655483 0.0
318 2 1.8483878446549262 10.628292258350035 0.0 -7.022895031834316 -4.6422339328049205 0.0
319 1 6.2960275098476135 14.180985944137285 0.0 -9.068763294857002 5.965344443351192 0.0
320 2 8.766650184911626 15.603840435348973 0.0 -0.6232347066890801 -10.419801084325263 0.0
321 1 17.79554760415464 11.86644971269929 0.0 9.972002039591436 17.178454339406024 0.0
322 1 8.01549028816729 19.47930518387668 0.0 -12.650119290272109 9.761401795238296 0.0
323 1 0.8786904481843189 6.926654270189652 0.0 16.63199316163792 8.462997510085426 0.0
324 2 8.010930036390302 11.030425994981714 0.0 -6.602510648786312 -2.507373890944138 0.0
325 1 3.0758326611204216 8.117683964353 0.0 -5.133029378924781 3.3185579965497007 0.0
326 1 18.89487925401876 1.9735966339310016 0.0 1.3067376032668945 -4.583544041515074 0.0
327 2 19.082595884639733 14.270589818547569 0.0 12.32616541106433 -3.283670586075042 0.0
328 1 1.0785158181434626 8.931595631217332 0.0 -8.350874042223502 -0.42881781470230906 0.0
329 1 2.1165385195270527 6.874640510686994 0.0 -2.541251379288383 -7.937607745323318 0.0
330 2 12.692638054585508 5.440342711592057 0.0 14.203258129669395 -7.156979487614956 0.0
331 2 4.822684686574985 11.211634589695358 0.0 6.565615858980343 -3.1805708199605998 0.0
332 2 4.9847901653118205 8.319538069162752 0.0 -5.249027815112947 3.235118689015032 0.0
333 1 0.9416224017336754 16.72880984058978 0.0 6.939649163733467 2.4629964304658483 0.0
334 1 2.8111863403648303 4.403612897813767 0.0 19.665527317020782 16.768351516281783 0.0
335 1 14.707431122282843 11.266090890302333 0.0 5.2785609361709795 -26.68851912480577 0.0
336 1 6.042236438412484 13.695600839714828 0.0 -3.8786918444364593 8.686362022814434 0.0
337 2 14.921440674391517 19.644566890693735 0.0 -1.796532102231194 6.485299719425805 0.0