ITEM: TIMESTEP
0
ITEM: NUMBER OF ATOMS
400
ITEM: BOX BOUNDS xy xz yz pp pp pp
0.0 19.7609 0.0
0.0 19.7609 0.0
0.0 10.0 0.0
ITEM: ATOMS id type x y z vx vy vz
1 1 4.338708247430283 5.712923011034134 0.0 0.24900513808035643 -8.938349067947549 0.0
2 2 1.3268727293373994 4.1025336144671 0.0 -0.7691236308014164 -4.33422291602141 0.0
3 1 2.673665494562976 15.96916711114011 0.0 7.651951723206546 -0.691608925898467 0.0
4 1 11.877027626831795 18.995350947690095 0.0 0.06768426568745689 -2.9829099266992847 0.0
5 1 5.099453567764043 18.351151109419213 0.0 -16.37696175650005 -1.9324023770116139 0.0
6 2 18.81101221744974 15.511503274032526 0.0 -7.42058946046954 -5.398470134959546 0.0
7 2 2.026027737612061 8.539349655228278 0.0 -3.0350229949059444 -0.6553120692557021 0.0
8 1 19.00394942478396 3.906166408559521 0.0 -16.627191777651205 -21.004715293613977 0.0
9 2 0.9644047101701042 19.10936114401995 0.0 -7.1399738526724414 -6.249265643424667 0.0
10 1 17.065947984268163 17.084768868602303 0.0 -7.020427351279286 2.58014823607195 0.0
11 2 5.456905554117036 1.3056855922210355 0.0 -1.3371431826177025 1.1155267032211724 0.0
12 1 18.743232846159156 12.456897812406336 0.0 10.922675567512824 -9.310657375641846 0.0
13 2 10.10836466093513 1.2021256201158161 0.0 3.932502600083357 0.5855647981026821 0.0
14 2 2.1603360504594376 13.270960721840423 0.0 -0.0782048378701716 -8.27430221602979 0.0
15 2 16.185995596377087 14.053264260687019 0.0 12.22055507081908 4.156477118969103 0.0
16 1 4.420949024861387 0.9829721689410688 0.0 21.455053480509108 8.431649125102995 0.0
17 1 15.87155646255389 11.084997116982453 0.0 1.6338084724582038 0.43980386422362083 0.0
18 2 11.587616039767514 14.902620698748972 0.0 -0.13032274725423787 -4.292386303816517 0.0
19 1 13.55706863194773 19.567724548909727 0.0 -2.0429504945756216 7.211647063513856 0.0
20 1 17.9780950490344 11.859756523858094 0.0 15.464307980398644 -10.872806534417657 0.0
21 1 8.72095752660951 18.294046967460847 0.0 -15.169984401741152 2.278875002677092 0.0
22 2 2.88546355975718 11.200514746091084 0.0 -10.957517759682567 -1.8916666991684565 0.0
23 1 1.5164410481362542 0.9496584916331489 0.0 -3.919874539831905 -2.557165491444657 0.0
24 1 2.4507783134214804 16.480825593322056 0.0 -1.8412393161002285 -13.424705981839068 0.0
25 1 18.74154855340134 0.316869420773811 0.0 8.881005950025845 2.880307040163779 0.0
26 1 7.3725644956915035 19.422328094228927 0.0 -1.1136488200894394 -7.5016428530399955 0.0
27 1 0.32732984495888284 5.366960422454709 0.0 2.9278171731134175 5.011074084212633 0.0
28 1 17.699620770983298 7.9024436991754845 0.0 7.64681767982006 -6.987827050458994 0.0
29 2 3.5762000553588424 18.22669535617537 0.0 10.029571479748563 -3.02716734806858 0.0
30 1 11.175123511397395 4.562939308158764 0.0 -0.27132811264778206 -2.4317174150984617 0.0
31 1 14.243616101611636 13.712007354453934 0.0 -3.554878761660193 -4.141366323569267 0.0
32 2 11.79322899817013 3.154534786091553 0.0 -8.332551684388159 -2.421329663395983 0.0
33 1 16.75431870464635 1.1086809579457595 0.0 1.6311803102204667 -13.698129061821597 0.0
34 1 15.322245778009288 8.333548661289898 0.0 9.887191248727133 -18.9498626769174 0.0
35 1 18.76363815055588 18.79376770985756 0.0 24.863097956389666 13.852265575408804 0.0
36 2 5.134320446606753 14.062542711943443 0.0 -1.9564499243306277 -0.1955540153545635 0.0
37 1 17.06062990784469 8.579458247147093 0.0 10.5382233158045 -12.454182450573523 0.0
38 2 11.71369172129757 2.137166928149771 0.0 2.71226406413577 12.084757635148948 0.0
39 2 10.741890786527195 0.059372325705357595 0.0 3.187630333134485 -9.520707680719303 0.0
40 1 5.23453468271867 2.545499140419793 0.0 4.894474936092951 -2.73697928710745 0.0
41 2 13.709052275399971 7.059511858708779 0.0 -12.217254132061138 -7.437352063473734 0.0
42 1 6.994867994280154 15.865822750517331 0.0 -13.766817574417288 8.459106547304076 0.0
43 1 4.4010278918447705 12.794577706701316 0.0 1.4901330582363599 -7.905376307499574 0.0
44 2 16.142749112914277 15.255109131301158 0.0 0.35595216451539086 1.4629109565417509 0.0
45 1 6.149351894160964 15.553268834382449 0.0 1.9417418191603208 -1.7492446545812346 0.0
46 1 11.946425837650205 8.818503549049883 0.0 -3.372815164955439 13.444742656961663 0.0
47 2 13.957044052920644 5.976046226922891 0.0 -2.5717240420750027 10.22491158200293 0.0
48 2 7.092484173033218 4.086027013969335 0.0 6.428722492451684 -1.5998852830047885 0.0
49 1 1.4659785548620883 14.327799814415702 0.0 -7.40358911895841 7.620883490918374 0.0
50 2 5.460350318979759 12.931484496364677 0.0 6.218882348624551 2.3845990809929947 0.0
51 1 19.456013531822784 5.2589187196126 0.0 6.081185830964244 6.359005525958847 0.0
52 2 13.456443990573922 1.8905420903468857 0.0 -0.3001909805176558 -3.471889758733093 0.0
53 2 13.13957577025709 9.982423409432155 0.0 15.278952738015928 1.1008257236017664 0.0
54 1 15.406902765060497 14.425002608273067 0.0 7.2955666848127185 15.111510875324077 0.0
55 1 18.22154193366207 17.293949809653718 0.0 -7.539939086981513 3.0936166783259123 0.0
56 1 9.418133455795259 8.899438482744575 0.0 5.216088389378616 1.3139594966151833 0.0
57 1 16.139475405215073 1.0680808157017878 0.0 -3.951722625782265 -9.128918547467778 0.0
58 2 0.1153397957418302 1.2059115646548892 0.0 5.248047581613497 1.5441907280377576 0.0
59 2 2.4046179884711494 4.916484923149004 0.0 -8.39349265781662 -4.675354140701776 0.0
60 1 4.200030463233643 16.433899520065374 0.0 -5.980590293977153 2.4370224352172114 0.0
61 2 3.606978884075199 0.43559826535247514 0.0 1.5356726283544366 3.2867244456075246 0.0
62 1 10.292299041408732 6.788765315065089 0.0 -0.6773926893196001 -6.075328018786837 0.0
63 1 14.626534737950491 18.241480143846868 0.0 7.852592159457917 -18.85995500840148 0.0
64 2 8.731504113208764 14.29856624833368 0.0 3.1684025303886094 -1.8290177640075036 0.0
65 1 6.072536438914944 16.295867950253875 0.0 10.946031417320842 1.6212588652343192 0.0
66 2 16.407566845602137 2.116153684880508 0.0 -13.009556501769076 2.906446254612776 0.0
67 1 13.012464783563715 15.573109073172786 0.0 3.3833168430452556 1.286198386672814 0.0
68 2 6.253328082073834 4.315887418386957 0.0 0.7300227343320561 -6.236056467122905 0.0
69 2 17.70994963949867 16.337709527453192 0.0 14.477646821908218 8.397368098783392 0.0
70 1 6.866583337407684 16.417060329252962 0.0 -17.442443992065765 22.340863055248505 0.0
71 1 14.922228939632454 6.505889471400254 0.0 -11.454405256624694 12.067341214924237 0.0
72 1 17.821663274757256 5.291875459786696 0.0 -1.8478675765932524 -2.9746675891784666 0.0
73 1 0.2057761575327267 14.352578249545545 0.0 -9.120427075856796 -4.510268017102872 0.0
74 1 18.73677851074035 11.186494326678737 0.0 -10.062640734120416 -4.629166771625275 0.0
75 2 5.615784231060857 17.52320217995251 0.0 3.4429550696517786 -4.3346669704371275 0.0
76 1 19.046833373039732 19.292080646939233 0.0 -0.3882282770182752 3.9610389784258664 0.0
77 1 18.909206364327602 4.594000569645061 0.0 -0.6972977992778473 2.254189043591839 0.0
78 2 8.306416881407372 10.139502946814822 0.0 -1.0843999943090534 -3.341853823800506 0.0
79 1 11.141854682692745 9.77600744618227 0.0 -4.953661675224314 14.88534984814901 0.0
80 2 5.271318611148886 4.513540340652576 0.0 4.0612012128703805 -9.909431263568946 0.0
81 1 17.737737992905554 12.487844659651286 0.0 -11.226886024215526 0.6928605172548236 0.0
82 2 12.484446481410805 11.152592278350516 0.0 9.297920840551377 5.463299600494438 0.0
83 1 2.4113540735718035 15.359742967790206 0.0 -0.7145619074902784 1.110264271553169 0.0
84 2 12.58321067034972 0.3365196467162952 0.0 -3.729439322232662 -3.8575464287930386 0.0
85 1 11.28399324843134 8.241722484042318 0.0 -8.280525095910926 -4.026252446957082 0.0
86 1 5.5387847467460425 19.547758137941372 0.0 -8.894613073028644 -0.9185265775898164 0.0
87 1 5.861776102778043 16.74992341991043 0.0 -0.4694767751643349 -1.074412953998292 0.0
88 2 6.772917173745972 7.246084876437068 0.0 6.364760220804472 -6.185032898231134 0.0
89 1 14.58138632807235 10.71202081528122 0.0 -8.41271696985948 -20.26205160927263 0.0
90 2 6.39091116525036 0.7952154037595871 0.0 -6.331869606960655 -19.255014114123384 0.0
91 2 15.403809743779458 16.12900733351963 0.0 1.1785837708869402 10.778895002799372 0.0
92 1 0.14080267465895904 13.849273306613185 0.0 7.861832843584751 -5.698074626543793 0.0
93 1 7.748454578367556 18.184577331608036 0.0 -7.31957098508493 7.070074268956754 0.0
94 1 8.300506027749732 15.649065841906054 0.0 13.966044767562993 0.6770598643694344 0.0
95 2 18.0660389057085 8.792648824930021 0.0 3.10239726188113 3.522730229650872 0.0
96 2 9.964648263963827 12.101514980401669 0.0 2.09812712665111 12.647318161858323 0.0
97 1 18.609002139724865 7.847454810421362 0.0 -5.449467962431229 -5.203757379775597 0.0
98 2 15.961445765052861 17.791094481117202 0.0 3.2648807038056487 -16.932683620552666 0.0
99 1 18.733889035288914 9.015612546081721 0.0 4.8717285788943965 6.759113507014814 0.0
100 1 8.97977573161111 3.05491987900928 0.0 9.725483572001371 8.490956363601336 0.0
101 1 11.998796726400135 17.309387851582226 0.0 -4.941883792399338 -3.2279408389328146 0.0
102 1 4.172874139796085 6.2012236206011835 0.0 1.2773448626455344 -1.6074569476572156 0.0
103 1 19.308467681171223 16.801483759146713 0.0 10.415566331620466 -4.214775548456243 0.0
104 2 10.895804950049712 18.66417626993665 0.0 9.27954076433501 6.39385506975375 0.0
105 1 10.832630800059572 14.355897349627048 0.0 0.19473106214248412 3.1582355467402294 0.0
106 1 17.257047314305282 13.62571616973892 0.0 11.493895297332271 0.06080858858991486 0.0
107 1 13.531792127956516 10.840718991803998 0.0 -10.226971130603076 9.033480410386936 0.0
108 2 8.728178174761926 11.075044158337294 0.0 5.225071772044283 -6.106695002869935 0.0
109 1 15.074349603488903 19.498782834167603 0.0 -14.235158380190198 3.0543763944903026 0.0
110 2 5.677081160214345 9.656714307758424 0.0 0.16284951740687004 2.223687030328841 0.0
111 1 0.5039006779126258 14.809507482425243 0.0 12.059613328944957 -16.654785838299183 0.0
112 1 6.4717240788183 15.200930317388773 0.0 -4.741508889511448 -6.910283623743075 0.0
113 1 4.683750148189757 17.605869744893134 0.0 3.5243987493483533 5.5614859925438855 0.0
114 1 9.66392719895029 13.610499058897782 0.0 -9.061621929840454 -1.3314230146435126 0.0
115 1 3.1037617011323344 13.452552421836927 0.0 -10.738016542595728 11.25852206141741 0.0
116 2 9.471926888471119 18.967935769803955 0.0 4.748231236289819 4.186377127166962 0.0
117 2 6.01667054488062 8.555933024207416 0.0 -9.173711352621849 -1.443171924963446 0.0
118 1 3.4574050379371886 1.2861624358667203 0.0 5.2152960971096975 4.837270799799364 0.0
119 1 2.502944596644221 6.512066380106251 0.0 -5.3198947624749024 -18.16255498866235 0.0
120 2 0.2389477843081504 2.216202734525219 0.0 -1.70276761919631 3.4491809019415762 0.0
121 2 2.3787879488263854 17.779018008641895 0.0 0.6233074135431632 -3.295779268852512 0.0
122 1 4.913859277302949 19.56538153588601 0.0 -7.644424512770041 -18.11552127333776 0.0
123 2 19.694924082177742 7.550192359239305 0.0 7.3240211453048 -1.1440636698396962 0.0
124 2 15.392542667991384 0.8740432724980349 0.0 0.3730308636076637 5.629750146079113 0.0
125 2 7.897202699081926 0.2943411101545663 0.0 8.340522731253447 -6.074954209447335 0.0
126 2 7.326042574335367 10.108943284979052 0.0 -0.9110336300204445 5.47694966330865 0.0
127 2 17.301974952799938 15.3867297218879 0.0 -6.140685880569116 3.517288239182468 0.0
128 2 19.59031779024282 12.450988381391715 0.0 5.413623465834208 10.012356995302008 0.0
129 2 8.952516367932072 5.658897007187763 0.0 3.4831912325625876 1.5447815592244494 0.0
130 1 11.679690705979965 19.69881953617649 0.0 0.05057852969157989 5.996244679220641 0.0
131 1 18.809289362439994 5.105810934980611 0.0 2.8237569472410544 15.186516275924097 0.0
132 1 0.30839022784163705 16.60588787577036 0.0 12.479158443305044 -0.8906134888002396 0.0
133 2 13.445517904700342 4.7964922493083035 0.0 -2.81854561021365 -1.5636240285323206 0.0
134 2 11.708879682483213 11.592438052770087 0.0 -0.47679096744582306 -2.6200667492760887 0.0
135 2 0.14246728130730069 0.3283027233370032 0.0 -16.27176216446893 -3.644631552662943 0.0
136 1 18.707896031983203 17.0070245033727 0.0 5.087299405362175 -4.474569962815153 0.0
137 2 1.459756072472587 5.262315536892973 0.0 -5.262568714118935 -2.516504675221082 0.0
138 1 0.8203686459060976 10.320593733144543 0.0 8.29950957741089 -6.526354975165182 0.0
139 1 0.7720066133304314 6.279324202928086 0.0 1.8013890592816777 18.722716051364646 0.0
140 2 0.036776108994663326 8.505191984994767 0.0 0.1377707619571725 2.4097181385486777 0.0
141 2 19.003935475205104 13.69111970797864 0.0 0.05173397679777514 -3.2192992436499304 0.0
142 2 8.567729609920665 0.8772131926151191 0.0 -10.333623567783379 5.597453686589841 0.0
143 1 8.030500172943675 16.062554881463257 0.0 -7.7176535251944784 15.280140150090476 0.0
144 1 19.376756623524873 2.845882541509058 0.0 -3.0882596026168794 -6.872151935265606 0.0
145 1 15.838244144231824 7.489690392467221 0.0 7.077552913329851 -6.067203862711551 0.0
146 2 9.708830883408707 0.200241081700974 0.0 0.5070174175309676 6.608514766802247 0.0
147 2 0.053553428975645065 3.8565935644858955 0.0 0.6384500969424278 -7.297707833732163 0.0
148 2 4.586944694231471 9.183989730849238 0.0 -3.278966607691988 5.453250965176748 0.0
149 2 14.994457244377962 2.074531496493156 0.0 0.7801213212081771 1.4166555323298438 0.0
150 2 1.1758563496665304 13.551673243654637 0.0 11.308935406346356 -6.370501329066679 0.0
151 2 2.0098743348307457 7.319915806307758 0.0 -13.31169399187821 -3.849979377419537 0.0
152 1 11.689744838024843 9.805441054346206 0.0 2.430460163656674 5.067028831661772 0.0
153 2 1.0371676823810194 0.20853166516382493 0.0 -0.7888808950743107 -4.204934913438194 0.0
154 2 19.69707281770464 15.263561263320446 0.0 -1.35530739885944 16.593652424583034 0.0
155 1 11.774067700727322 15.986296106270112 0.0 15.59117230058846 0.5404303271363851 0.0
156 1 18.018762244598168 4.01080281068381 0.0 -3.0068861056475797 -7.766138883483951 0.0
157 2 16.212504135745224 3.782058161938198 0.0 -3.8428410566181754 8.77128419302479 0.0
158 2 2.364736280005747 2.5927511155578085 0.0 8.56616332940871 -10.276920787542291 0.0
159 1 5.4299435491068335 3.31234602849538 0.0 -13.585534899910519 8.176957758100722 0.0
160 1 16.50639393200643 11.008104882380339 0.0 -18.306370610670964 -9.044842557591757 0.0
161 2 1.3029330439837168 1.7013000537298313 0.0 3.5200333646316735 -1.0235187111410677 0.0
162 1 1.3442790003963834 16.579249444435266 0.0 1.0037074900716756 6.64477080753949 0.0
163 2 12.851984922825519 18.729296541190557 0.0 8.381817245281274 8.676143138233531 0.0
164 1 12.326101099955295 16.633656447894815 0.0 -7.288729372469206 11.19654226873622 0.0
165 2 6.359956811031653 5.872504625046303 0.0 -6.037082324886554 2.029236150365917 0.0
166 1 8.232324067524823 17.84763608865785 0.0 -1.3591623687686714 12.561825500327746 0.0
167 2 4.905058563207734 6.617765272413229 0.0 3.2518662056896743 2.8682081505637966 0.0
168 1 9.64802231954479 14.098222810396488 0.0 -6.342124423017557 -3.2171329185764463 0.0
169 1 7.131844843682713 2.6659600023690664 0.0 -9.860647085515696 -0.8209172145804966 0.0
170 1 10.459203744074278 15.389028120930265 0.0 8.135448376528325 12.752132260281407 0.0
171 1 6.18729036523235 19.18266510359097 0.0 10.043754480032812 -3.1900675814692 0.0
172 1 9.794195674173102 5.697039543196203 0.0 3.4620794046219743 4.145426357659617 0.0
173 2 13.627975776206187 13.122343337761544 0.0 -1.080587495659031 9.68486174245216 0.0
174 1 7.332551385296269 16.75706484000616 0.0 4.219388759922575 2.0156081705078868 0.0
175 2 15.703205002134336 5.633126770355012 0.0 -12.787647725289473 -3.607436250839743 0.0
176 2 15.842194687266838 19.583328605394595 0.0 -3.7065557889484904 -9.591598229870854 0.0
177 1 2.8710121539288287 5.481010473217667 0.0 6.587326148016062 5.181413909950348 0.0
178 1 13.870401107503891 10.51720213589656 0.0 3.38633605609455 0.18849348897060053 0.0
179 2 2.176391526059192 14.129428135924519 0.0 -1.8255904015737756 0.6445781070387304 0.0
180 2 12.688457638412782 1.5885518057331036 0.0 0.7319696304223181 9.38091944574332 0.0
181 1 14.658861921872825 1.2799978124013738 0.0 -8.449330151510603 -30.9132730261557 0.0
182 2 6.311215504281952 10.870859501947738 0.0 -1.650937660239756 8.062360190358188 0.0
183 1 18.879741726202994 7.181349149436815 0.0 -1.820284658252864 4.787817552614132 0.0
184 1 3.756678413762775 13.840915868984114 0.0 -10.721097234902704 -11.090890179024932 0.0
185 1 6.2336415476898175 18.01822591752696 0.0 -2.7383375562425774 10.352511516758003 0.0
186 1 3.577594714179877 19.128539859186244 0.0 -3.3858516492591457 1.5598053145622954 0.0
187 1 17.23278549976304 2.315162443363501 0.0 -30.340086198753824 -7.647787939804408 0.0
188 1 15.483151024293779 9.791570226205648 0.0 -9.022401454910392 -20.42399651586032 0.0
189 2 7.6122184140355245 3.2652548501072785 0.0 4.125054210072473 1.4714477952527958 0.0
190 1 16.57127675455328 17.233458005210917 0.0 4.9513834150531215 -7.2916068106376475 0.0
191 2 14.79831891211663 12.798390784637917 0.0 17.446389855669057 -1.301170587868629 0.0
192 2 17.060619655279595 17.957573614451466 0.0 -4.761463507431917 -2.878793415199484 0.0
193 1 9.80599251927136 10.162483842994357 0.0 3.397573791514053 -0.20838418498545605 0.0
194 1 3.9043321527088586 16.872547352016248 0.0 -5.270847558916754 2.8683673635680513 0.0
195 2 0.8736829790411985 15.832030634349787 0.0 1.8042984870121404 0.25347128782994793 0.0
196 1 14.990027107236916 10.099868666038997 0.0 -5.55205135496451 -1.2365653582246674 0.0
197 1 9.76791676576819 4.377149535677689 0.0 2.9622695131964423 7.783368110924941 0.0
198 2 9.56190474463387 15.068323424997967 0.0 1.4430767744962467 5.683788842763879 0.0
199 2 3.1640069353488993 9.094625650342467 0.0 -0.7268847064831019 -1.430859310545929 0.0
200 1 1.9251916764337353 16.07785933401543 0.0 7.222734131763234 14.6777622762618 0.0
201 2 1.101853370710083 8.45733966661477 0.0 -3.992071693571238 2.0062829918665512 0.0
202 2 9.885589977569815 2.5871599374543415 0.0 -17.201816186337243 -0.8172053393610379 0.0
203 2 6.75620901676633 17.319737050412947 0.0 9.115672939652155 -4.120872274509881 0.0
204 1 1.939241943438272 15.16526560175355 0.0 9.101352488187608 1.4455171478681297 0.0
205 2 14.432216972533231 2.7145551846404152 0.0 -0.40647536735071943 -3.0071284378916494 0.0
206 1 13.9915075157176 9.732249339701902 0.0 5.863730059956022 -5.110389451221914 0.0
207 1 8.316988943473513 18.889068548492055 0.0 -10.799252770792577 10.901203151709478 0.0
208 2 3.325761116776123 4.491954358119576 0.0 4.176904506661733 1.7400203346079153 0.0
209 1 2.8566224436370655 3.3224728340527796 0.0 -3.874308083565598 -1.7709047330366194 0.0
210 1 15.185311073257083 11.32024772989596 0.0 5.2398305888337 0.42223977755743025 0.0
211 1 10.643515570269368 16.00004111540568 0.0 -11.998252844426636 3.1465923202515564 0.0
212 1 11.625177739235294 16.505331831149928 0.0 8.869163921379654 -2.971643164264069 0.0
213 2 7.192191841976156 5.185648281097674 0.0 2.504057198385 2.740383907924998 0.0
214 1 16.308431294234218 9.537079364216126 0.0 1.1197214925683745 0.25718943906133496 0.0
215 1 15.607670639015824 2.7673015168816577 0.0 -12.04545579252445 7.300021991612592 0.0
216 1 6.865350154609339 18.329315000321724 0.0 -4.533481483878447 2.9112625078433267 0.0
217 1 12.736751500461061 2.991990036477056 0.0 5.076954865512604 -8.050967387585041 0.0
218 1 10.50306473870007 5.646413895409389 0.0 -30.424725886174024 -6.34402547352693 0.0
219 1 4.20611575818053 17.46376057217325 0.0 0.27348023486004625 1.2342881102735481 0.0
220 1 5.962526516204655 18.572752448652007 0.0 -10.946741491658836 1.8033220482778414 0.0
221 2 10.937405253820712 17.029425772086494 0.0 0.42637084692393507 -0.7531905664217527 0.0
222 2 9.708688128802619 17.854318583586196 0.0 -0.6174761560834815 2.690020124220888 0.0
223 1 17.161364285960754 12.09871703833233 0.0 -6.44557325355142 -19.56897199636387 0.0
224 1 19.574760738213318 11.297107864597294 0.0 2.893105191499137 4.589190828364714 0.0
225 1 10.964610514636718 10.406183276187683 0.0 7.906505552867885 6.7444878186806605 0.0
226 1 10.437054427521192 14.644415898967486 0.0 0.7704379214244069 -3.3296979709752 0.0
227 1 18.827689516682586 1.5298606567373154 0.0 6.3030725417126225 5.861053112569118 0.0
228 1 10.304828362769507 14.081513206269577 0.0 6.2574209631386 14.75867926248266 0.0
229 2 12.015576010793001 13.579858055584506 0.0 1.3440228299834318 7.35771732687258 0.0
230 1 3.6104415136749957 1.9079593847882288 0.0 -3.2636350367990534 11.809845044447087 0.0
231 1 17.740540466505433 13.777858337336674 0.0 -11.249749051817119 2.9551101718110018 0.0
232 2 5.937422685840656 13.873383401949946 0.0 7.582020184807279 5.796496805219712 0.0
233 2 7.557702743687353 1.3399807450328982 0.0 2.8206482793116052 -8.43430563934499 0.0
234 1 4.796561499285381 1.929193563004136 0.0 -5.209083458649786 3.803273772170978 0.0
235 1 11.887818962667648 4.711692279215055 0.0 -11.662951989674905 0.37710876943829824 0.0
236 1 17.535095787753406 11.379355447354728 0.0 2.835136319810581 4.843607639650598 0.0
237 2 15.58895599282867 13.195683690880934 0.0 3.333331897601878 0.9984085531196492 0.0
238 2 12.473730848006602 12.567194856760374 0.0 0.859766751243578 -5.6435985916917755 0.0
239 1 11.779968960803323 6.45862765061879 0.0 3.3380567321235652 -2.639084804571103 0.0
240 1 3.3143722116873486 2.482926990740441 0.0 9.116108113092713 0.5508188865693382 0.0
241 1 6.867255952484512 14.506489726035971 0.0 14.900906482733001 7.686692884845187 0.0
242 2 0.722174977069315 12.06919355463642 0.0 2.699910800156398 -3.893134144403309 0.0
243 1 11.034171299528815 3.156297637345628 0.0 5.3131418547464975 16.877508528874866 0.0
244 2 6.560578202107424 12.490032087749436 0.0 -8.983380423293235 6.6316741788722435 0.0
245 2 4.1774545839863135 8.37385796819065 0.0 7.941786814379461 -2.2989999470381917 0.0
246 2 10.756995207618125 11.28628682213198 0.0 2.5871868266309943 8.225147420773819 0.0
247 1 7.526206256271832 14.397530337470323 0.0 -4.63060982139886 -6.704673943476702 0.0
248 2 11.157286314051861 7.190459657496552 0.0 6.7535648768062515 1.89417615180027 0.0
249 2 1.8114919099560651 9.445487248773137 0.0 -2.803699710404039 10.17373353019189 0.0
250 2 10.544415223583881 4.052584920882874 0.0 4.311109930120734 -1.919548359212303 0.0
251 1 19.67335492539416 16.49318585206468 0.0 -2.896655018551493 9.432905668209163 0.0
252 2 11.512887254663628 12.55768091043386 0.0 9.160925210192763 7.162365799219058 0.0
253 1 17.119836399898038 3.8148783938397215 0.0 -7.407173406713935 4.007597273261394 0.0
254 1 18.124530126451578 10.593561871063994 0.0 4.866833390490051 -5.258306621082319 0.0
255 1 10.246982164125361 6.218350131275382 0.0 6.633018510600291 2.41039960026445 0.0
256 2 14.784998181529733 3.491138555155737 0.0 -2.648416149908342 -1.9026305132669503 0.0
257 1 18.263833330318032 9.872133069589667 0.0 0.795751120621265 1.129065656516322 0.0
258 2 2.2128158567269307 3.8585229764689255 0.0 -1.4719466570579811 -0.8153228398088486 0.0
259 2 13.173573231682724 3.69548996506614 0.0 14.16946985722207 -3.9688264398252056 0.0
260 2 16.658315717132325 16.43102727702969 0.0 -3.478049818027182 0.14411215075815284 0.0
261 2 0.12070405090533522 18.74935491606528 0.0 -2.802361081453728 -4.6131923219753705 0.0
262 1 17.17156543578257 7.812745446546992 0.0 -24.36541649144151 -2.294281098997399 0.0
263 2 8.009329172542557 6.817025664158792 0.0 -0.9875798067362648 -5.335000471840193 0.0
264 2 16.62850228755717 12.777076120277549 0.0 5.205212128562934 -3.7284901744176993 0.0
265 1 5.859379775207559 6.828153521130817 0.0 -5.457026860842372 3.5862470738231242 0.0
266 2 1.8945471647611416 19.46931352343415 0.0 9.014025027336796 1.4409738354908235 0.0
267 2 16.389592021327193 18.640906590738286 0.0 1.7709463678975441 3.5567154367675955 0.0
268 1 2.8451190782981652 15.057445345041314 0.0 3.1628742562960013 4.755139662157776 0.0
269 2 12.034038646505058 5.737649118402395 0.0 -7.078468433966909 -8.468942423243638 0.0
270 2 8.370699286078162 12.482043518239859 0.0 -12.803600681498512 2.382957922798461 0.0
271 2 2.811343367877137 9.826120989397237 0.0 2.5800631459132544 9.90477407131829 0.0
272 1 3.4388617764500937 10.665326510188917 0.0 -2.092839059346588 -8.452107039014447 0.0
273 2 17.74980949661717 7.168813312274256 0.0 -0.38117987448578944 -8.406623619009563 0.0
274 2 10.600955174946263 13.094835073314238 0.0 2.8557105704723202 -0.8392965175788619 0.0
275 1 3.307411280024369 5.705626167008806 0.0 -16.689236159763738 6.71207337910599 0.0
276 1 0.3151555159139402 6.7436013743180885 0.0 -0.4041170294000617 -8.231881789206883 0.0
277 1 14.988719336520655 14.957003311568373 0.0 -17.22264406307918 -3.7424479445562846 0.0
278 2 11.941630673893215 18.079987807795234 0.0 4.0677949666217 11.84370096392482 0.0
279 1 7.909529915415588 4.255537896262087 0.0 -3.094935416941271 5.638090598869923 0.0
280 2 8.215542195614978 2.141832589231798 0.0 0.6754353311235661 -5.844173572175137 0.0
281 2 7.256663267027185 6.289903358671711 0.0 6.620068451394045 5.059203870166323 0.0
282 1 10.955734591463658 8.88543467179601 0.0 -19.301256366484882 -3.911094967019973 0.0
283 2 12.852761067907624 5.468192632644817 0.0 -0.0058657884122616175 -4.1807162968228955 0.0
284 2 1.381208271381204 2.710277103340717 0.0 -8.19774719639383 -4.142279339779964 0.0
285 2 8.836399510517548 17.153860407396564 0.0 -4.963856653328004 -2.367622663232103 0.0
286 2 2.0606353408499176 10.815532118549266 0.0 -1.2216274155584368 -5.591157544036941 0.0
287 1 1.1257562152276661 10.01489084392604 0.0 4.855760446658701 -6.282988933796007 0.0
288 1 9.611622534018547 8.480936641327768 0.0 3.4996200745669213 -3.5353879547720934 0.0
289 1 0.3453624383037723 11.181558451181516 0.0 -10.691641884579504 21.133516656033592 0.0
290 1 11.697469377219653 10.634309819603237 0.0 4.079495843054975 -20.459088211138482 0.0
291 1 11.128937582158027 5.922069725455867 0.0 2.493328190719715 7.65883199471168 0.0
292 2 9.49122908392186 6.888740515774023 0.0 -1.2778228470253452 -3.3393520343588095 0.0
293 1 8.483291443981766 4.668734704572154 0.0 0.3534032694200274 0.7379466946396858 0.0
294 1 3.852153537696098 15.589672364941034 0.0 3.610235711610018 -2.601481253220855 0.0
295 1 8.969154579345034 17.939701113675206 0.0 12.10606428019517 10.840395627549977 0.0
296 1 7.458286035580919 18.69479426401763 0.0 -7.1721851253101185 5.106138593412358 0.0
297 1 4.111148540972701 4.854196272918013 0.0 10.073238262763935 2.315223481890809 0.0
298 1 1.8761280331433294 16.749749394848152 0.0 -9.449602698596923 -5.289487132237763 0.0
299 2 12.849377523998191 13.820543548577566 0.0 -5.100915395303996 -6.4840260617384375 0.0
300 2 18.1355656842388 18.189163682419665 0.0 5.816901284227575 -5.299591765021421 0.0
301 2 0.6768309546287349 18.12152575783655 0.0 0.02106269239034497 5.759243458341307 0.0
302 2 5.688670040591783 14.908909763683333 0.0 2.2180531733015805 8.352575541604015 0.0
303 2 8.603243120370479 8.473844882323876 0.0 8.540563467455046 0.401435750066239 0.0
304 2 17.62122429992096 18.837871745928467 0.0 -3.7403946831510435 5.648191827548149 0.0
305 2 1.7900338576309773 12.018045966851048 0.0 5.266897798978129 15.061165111754091 0.0
306 2 9.573870254997868 3.5777945211190163 0.0 -0.9196302327831917 2.5373382561543334 0.0
307 2 5.086571691208508 10.303843360514056 0.0 -5.866563164193423 -7.257505527766186 0.0
308 1 18.74866647965853 10.301870546112331 0.0 -1.6501987737983912 2.265355025061892 0.0
309 2 14.147100004944473 4.254263813411691 0.0 3.9983720280666315 0.24951041436309793 0.0
310 1 0.6442715133945772 9.24498684657039 0.0 -0.6543404539586243 1.6034519998654255 0.0
311 2 9.098691124973385 16.13846665835734 0.0 -7.950323162241272 9.60843858187724 0.0
312 1 4.598788842393719 3.1138472463146294 0.0 -3.9348650766571165 -2.4017063310496414 0.0
313 1 6.798722686461508 1.753856348294994 0.0 2.9566630094832194 -1.4008490310864032 0.0
314 2 6.979483882958019 11.51574838374528 0.0 -1.1519703650773099 -4.322737784601319 0.0
315 2 5.754024273702638 11.984479515972582 0.0 -5.086900375462299 6.645681737054473 0.0
316 1 4.126023192831561 3.2822686472845652 0.0 -1.018633308283152 -17.711292956660856 0.0
317 2 15.160079302455278 4.532430297043013 0.0 4.6713038817354295 -3.919432843600547 0.0
318 2 14.379326548529999 8.015325991959049 0.0 4.414427488296946 -2.5718642272356886 0.0
319 1 7.390945396289324 7.891392080507911 0.0 9.722660393912681 2.2093938338253003 0.0
320 2 4.1779471567141915 11.389669736816838 0.0 8.008029201817578 2.5423902633981093 0.0
321 1 19.57121702576197 9.565699257647028 0.0 4.668124551108314 -3.6708185541487315 0.0
322 1 13.382401698060328 0.4559213235306123 0.0 0.7741431063303832 4.691424753426094 0.0
323 1 14.864246059840852 6.9995236170721356 0.0 -3.973521354033577 -9.131336575340468 0.0
324 2 13.698936928312202 18.81503868060243 0.0 2.3548683223651827 8.530882595649015 0.0
325 1 12.264729858477011 3.943454427120547 0.0 3.0263562089403795 -6.245821140891328 0.0
326 1 18.505676365472763 11.97466264781178 0.0 -7.580536646979074 -6.373767184621165 0.0
327 2 17.27041838808031 0.3822652640407912 0.0 -13.071165603821015 -2.9533374588805934 0.0
328 1 3.0570312845461918 16.37179299990598 0.0 4.018250818797678 -6.919343201819074 0.0
329 1 8.845025574218608 9.366362474514876 0.0 -8.084473235716631 -10.64910894472844 0.0
330 2 13.336986340014962 16.99843024003854 0.0 -6.005882706508078 -2.3752438527581505 0.0
331 2 13.833117065663213 16.236515855822 0.0 2.3658492216739164 -0.029008349004338952 0.0
332 2 9.022841833806652 13.175513092925453 0.0 2.16301873012107 -1.4894748981999282 0.0
333 1 7.583017331444388 10.820958254588337 0.0 -14.139782071887339 2.228059460858156 0.0
334 1 17.943890417179304 3.5210325336887753 0.0 -11.41291336554486 -1.6384904916605678 0.0
335 1 4.487859004684364 0.33795656261249235 0.0 21.03839241539924 10.649941385903908 0.0
336 1 16.580349530763574 11.81949084140322 0.0 -5.518677296475546 -2.081655741484552 0.0
337 2 18.446345465674177 2.467200155746498 0.0 6.702841049521034 -2.629778479695993 0.0