ITEM: TIMESTEP
0
ITEM: NUMBER OF ATOMS
400
ITEM: BOX BOUNDS xy xz yz pp pp pp
0.0 19.7609 0.0
0.0 19.7609 0.0
0.0 10.0 0.0
ITEM: ATOMS id type x y z vx vy vz
1 1 3.768091370304213 15.966755685975777 0.0 5.20930967860644 1.4968816798805191 0.0
2 2 13.415753169652788 13.639359878419036 0.0 5.645691985124642 5.213487881587434 0.0
3 1 8.363934342796922 14.670245042317744 0.0 -2.3018445611546987 15.606532380077113 0.0
4 1 7.185471949035844 16.206155138695426 0.0 -12.425668698213885 -0.6808345475111552 0.0
5 1 13.539741947699264 8.145171345040225 0.0 4.063667239632072 -1.3787259099560945 0.0
6 2 0.02459851963688563 13.288280707509271 0.0 -4.433698075980431 3.8165358687433395 0.0
7 2 17.152760421349306 14.031356562525449 0.0 8.805705398935132 5.630573460422168 0.0
8 1 15.49447894858041 10.576976947348083 0.0 -5.825896772607736 -23.296448501676846 0.0
9 2 11.104322790039797 0.9917951274797823 0.0 -3.8110668281997273 -0.1839793694030576 0.0
10 1 13.426665955852211 17.717008136078984 0.0 4.730471642248137 15.947665038603457 0.0
11 2 12.322042687240476 17.297230705562 0.0 4.912109046897327 -5.736801173417221 0.0
12 1 8.803345175871884 19.73857428157195 0.0 1.1019270751123218 9.387562173513098 0.0
13 2 9.258434728329824 14.076199239418642 0.0 0.9535521871450466 7.204752673102125 0.0
14 2 6.480963660010336 15.428732473956194 0.0 -1.8152164703340739 -9.11136357433521 0.0
15 2 15.732817416564094 5.498537034342578 0.0 7.721453788791425 -2.6692434922949713 0.0
16 1 0.14392420414293627 5.083960065781557 0.0 -11.875947940032868 1.6256955238822264 0.0
17 1 6.8726564591658725 5.115616857684614 0.0 3.9975915672153155 8.28082846554653 0.0
18 2 15.117892712750452 6.84742786706705 0.0 -2.3964883974615403 5.291302582983191 0.0
19 1 9.630861424542895 12.750688984652548 0.0 -2.678256623208511 0.40518964465171614 0.0
20 1 17.95364779423186 16.214080736230112 0.0 9.48851246392909 7.542576136998372 0.0
21 1 13.764666859655422 10.734552992747375 0.0 -6.2163768529270715 5.726743720216664 0.0
22 2 5.014994002015613 16.214736654425057 0.0 -12.457933583307868 1.4270708111200856 0.0
23 1 7.394186501472123 2.5446182018090475 0.0 4.410087435836042 -5.27531729964618 0.0
24 1 3.230185761656636 13.502910417168916 0.0 -7.030729332691675 -1.6254168756473288 0.0
25 1 18.605342957955944 0.7103844636572557 0.0 8.365137161755888 7.712955433643854 0.0
26 1 13.64000957343746 18.613928192294512 0.0 -5.948492704813328 -5.698779145207212 0.0
27 1 14.828877197080883 15.34977430257013 0.0 0.35411622754424993 -10.240853914204802 0.0
28 1 15.188846138525763 17.304929262085015 0.0 5.779219407261081 -8.959834444740945 0.0
29 2 7.445869353837176 7.650357535696551 0.0 -4.999059745043573 -2.4593216818079946 0.0
30 1 0.8122745845911314 10.12189502599473 0.0 -12.850475446280551 -0.3163930217879331 0.0
31 1 17.148160882411915 10.385633326254302 0.0 4.242625005243261 -3.170283355745991 0.0
32 2 6.155460160398696 8.966714575457734 0.0 -6.064138897362932 1.4169099252180815 0.0
33 1 16.95756532160969 18.290631649239405 0.0 -13.650692642374459 9.02104090127728 0.0
34 1 3.881333523580652 13.738242897301395 0.0 -28.634987048418683 3.738778583021489 0.0
35 1 17.798601647762293 3.391892577839134 0.0 -4.439484262549668 5.536570361325562 0.0
36 2 0.12244238396556775 9.478457679675067 0.0 -0.2438230687107215 -3.022369517016097 0.0
37 1 3.7064396075555894 2.114392077655343 0.0 -2.663478903580331 12.886719415830374 0.0
38 2 13.656011884956031 6.727246009144754 0.0 -1.0459047172209903 -9.607560412678783 0.0
39 2 9.688268902059875 7.62662223375855 0.0 3.757852150384441 -12.13797567500816 0.0
40 1 1.1283858944630125 12.131694836025321 0.0 -0.4942731761375443 0.09897195778456216 0.0
41 2 10.235269129840809 2.5352418381547777 0.0 -1.6649554063388126 6.814601624555613 0.0
42 1 19.243517836438162 5.94172318761155 0.0 10.446689051575637 1.7000743430977203 0.0
43 1 14.657917853615775 5.07282295948092 0.0 -3.9149897315740314 -13.813170990490354 0.0
44 2 13.064360557246943 4.337025695543747 0.0 9.077444913302022 2.9615665502349167 0.0
45 1 12.853501695625486 6.438609062167776 0.0 -0.017331104505440693 -1.5476366260812189 0.0
46 1 16.19185295542097 6.205918043471151 0.0 1.9257826355850007 3.509009216705951 0.0
47 2 16.369052550678422 3.33023721964036 0.0 1.0315164956062766 -0.481896954653068 0.0
48 2 15.68644886545403 7.47675686589371 0.0 8.830384927497446 6.091447109512685 0.0
49 1 7.998168003789974 18.585267440504104 0.0 10.267317784936372 8.694113069020776 0.0
50 2 5.9006805135325235 0.27274929983553364 0.0 -1.32142042072173 -5.826389964717402 0.0
51 1 14.148566385708055 11.23233800023587 0.0 7.657637765397066 -11.422436149968412 0.0
52 2 17.14379401008157 5.493353901845692 0.0 4.702865941614347 -8.157055553035454 0.0
53 2 2.330564940156587 9.77808706797412 0.0 -4.849773910713292 -1.6579574745392927 0.0
54 1 5.171380338397032 7.334943963332533 0.0 -4.586732413079683 4.009821125523179 0.0
55 1 5.416605971051555 6.434734742332375 0.0 -10.3590482116605 -20.115057890708588 0.0
56 1 15.182778326750043 16.394972370721508 0.0 1.750807306951328 2.743778895193022 0.0
57 1 3.5659168647607307 14.00969386156035 0.0 0.10917839881981733 1.648305804392817 0.0
58 2 12.461235522574686 15.695789933655519 0.0 11.993287637800321 8.596500337686601 0.0
59 2 10.806400471073928 3.46346611734081 0.0 2.2081903959262554 0.12853254411506893 0.0
60 1 10.123591176249422 12.820551210021378 0.0 -2.133148147265884 4.940275129228853 0.0
61 2 5.252628691074497 15.291512254727492 0.0 7.490203967988252 3.992273657377905 0.0
62 1 17.90940201600392 15.178285912413802 0.0 -5.731246838994043 6.614826526940168 0.0
63 1 14.37227731722867 17.308994464652717 0.0 2.7462990621652748 -2.773589890192768 0.0
64 2 11.375843255192022 10.168490436506872 0.0 -4.684755264310035 7.692361484445059 0.0
65 1 9.589957118703305 15.584882139180618 0.0 -6.27874526347978 11.957493904638731 0.0
66 2 16.801618793326107 12.075475380178759 0.0 -7.733602512482188 0.26746383564542897 0.0
67 1 8.474312124898312 17.615974501033417 0.0 10.245387799628825 -3.2619890802251366 0.0
68 2 3.4578163720146784 12.284277883602936 0.0 3.6017807897108662 1.671940275293285 0.0
69 2 10.47120949045741 16.97090211801091 0.0 6.537479449543762 3.6499882087898268 0.0
70 1 10.568551430233716 14.79212679226103 0.0 0.7501925358800408 3.463689024502287 0.0
71 1 19.296660772522824 5.229756630882298 0.0 0.36672847961112887 -10.153821840354894 0.0
72 1 16.361941361282852 18.17170716903719 0.0 3.450563025905769 -1.5772040144840656 0.0
73 1 4.531148147737893 9.869382046579346 0.0 -15.787340099263641 0.49432409672975147 0.0
74 1 14.707553451541807 5.6588851190193346 0.0 -2.666936337539029 -6.960747252543591 0.0
75 2 2.75223530346574 0.6271746875664577 0.0 -6.40745733566609 0.8163263321363021 0.0
76 1 1.0870900551663596 5.980326722201371 0.0 -9.450050854724182 3.620177338317699 0.0
77 1 15.858103674445495 18.821900968507876 0.0 4.891930582993024 -27.229544188284475 0.0
78 2 7.933514550118905 6.742724136658963 0.0 -3.139242552109746 4.759088750047087 0.0
79 1 10.396742860756863 4.504934404290156 0.0 1.4203069717716377 -3.4972458847798786 0.0
80 2 6.306638810684811 2.612040483632841 0.0 2.9055815238330376 8.672015093136915 0.0
81 1 3.1165205724036187 14.348445617892898 0.0 -4.359021142024248 -8.476411996396823 0.0
82 2 12.440328593287292 19.490137305425698 0.0 5.81785956148088 0.9162098142047279 0.0
83 1 5.348390769547799 3.363078803072148 0.0 -6.553185053910496 -3.001591474867001 0.0
84 2 0.6631471246929097 18.02895846850091 0.0 -8.043538176483976 -15.94351270059432 0.0
85 1 2.883352256913909 16.79054724525541 0.0 17.097762043045734 5.155583288030276 0.0
86 1 5.741940693374457 14.465095043402854 0.0 3.522180494168791 9.814956854892985 0.0
87 1 6.650560610682036 4.472463617652206 0.0 12.693227426197003 0.06386515485024513 0.0
88 2 13.426553344484743 19.456235926348608 0.0 -3.412924592540745 7.039412716042887 0.0
89 1 4.967682585202539 11.039829554300125 0.0 0.9799717198465433 -12.691910932496118 0.0
90 2 0.05540017798569227 10.625708246673067 0.0 -3.248301637086997 7.0105417954716085 0.0
91 2 12.46675100030919 8.541609850946601 0.0 1.7597790704577077 3.9409732153006147 0.0
92 1 16.391798880130057 11.298182733887506 0.0 -11.375239745242059 0.8438759241559005 0.0
93 1 18.684908225951567 2.510095086219624 0.0 -7.785706566452375 10.858442328561114 0.0
94 1 4.639826668235109 10.584987882758815 0.0 8.318464225000788 -3.46935099589418 0.0
95 2 16.03923125994356 0.9875342430795923 0.0 12.820473793472884 -3.35340696885597 0.0
96 2 12.594698620952888 10.76476949101521 0.0 1.2426992527051444 -5.00524219948043 0.0
97 1 5.764466458525458 6.835845884298551 0.0 -0.1882726763624343 12.948709266266478 0.0
98 2 14.036728673571115 14.919930948180617 0.0 -4.75139722215211 -1.0902396751557832 0.0
99 1 16.2321593865337 8.925239252371865 0.0 6.221996962552151 -2.3301244345723506 0.0
100 1 6.73717557211507 13.608857595891317 0.0 -4.886867197220754 -17.424666433776732 0.0
101 1 8.787716861291688 1.9773955377007144 0.0 -2.8968962954157953 -5.963189195708189 0.0
102 1 0.7577800023990098 5.052733774605241 0.0 -18.251684303768894 15.65194849238218 0.0
103 1 0.6057256295761201 19.388147265168904 0.0 -2.3696724896483268 -7.475374875437774 0.0
104 2 18.23170545245419 6.979324591525673 0.0 -5.354332787730553 2.2915971110482554 0.0
105 1 4.303994343919301 2.564490354532636 0.0 11.717501625715695 18.075583948687356 0.0
106 1 14.585648363302004 1.0780608749069402 0.0 -0.16124423412292962 -1.824035998636172 0.0
107 1 4.523871816526698 11.90930338227624 0.0 10.813767195046973 0.8551561082466479 0.0
108 2 3.811045978062293 0.635283489932758 0.0 -3.526536948672023 9.551417954461543 0.0
109 1 15.183692368395187 18.14774130716551 0.0 22.16421425084883 4.738237234335814 0.0
110 2 14.497436270032996 19.736574090031755 0.0 3.0122776036825396 -0.9780711406661332 0.0
111 1 17.42902985835578 3.105710882992339 0.0 -11.772038390254478 -1.8056432952934176 0.0
112 1 8.013646915808398 0.04905887533106924 0.0 -15.947694208022984 -0.9444799151838622 0.0
113 1 19.39774695506042 2.2133423498112594 0.0 6.774651064311388 -1.6113751454538359 0.0
114 1 13.986399294969205 16.37958106432688 0.0 0.1780079811656168 -11.136480131322234 0.0
115 1 6.170184033688421 6.116243540567896 0.0 -7.282060364586133 -19.531761224890374 0.0
116 2 18.52457939361999 5.459113384656851 0.0 5.758197371687834 1.6730584548933596 0.0
117 2 18.691674945947543 1.4258687637393448 0.0 6.510184094778549 -3.881591973949758 0.0
118 1 14.167426071611679 18.665312607567678 0.0 0.9861264020717174 1.5738748861155027 0.0
119 1 5.673165848344096 18.233040171640255 0.0 6.275169385627205 15.561247439760358 0.0
120 2 15.958087004775406 15.857953386118451 0.0 3.895368279773165 0.8750226828240996 0.0
121 2 19.449561303294523 18.59847063530644 0.0 -3.7228543297229466 -2.7670236300887248 0.0
122 1 13.91402791613274 17.598337060186616 0.0 -4.604350834380599 -4.148988266899433 0.0
123 2 12.742525575582272 7.119824293701893 0.0 -10.417948406110536 -6.1244184376586235 0.0
124 2 9.700729055855094 0.5559174777766898 0.0 5.3097855914652925 6.234541661399207 0.0
125 2 3.843662241876652 11.421628629180145 0.0 -0.9383084631438894 4.0435641254858705 0.0
126 2 4.852093577723013 5.519264037807661 0.0 3.8505429168763823 -5.471463514240313 0.0
127 2 13.261013190142602 12.469245696460513 0.0 7.828890949311936 -0.8226936333648472 0.0
128 2 5.812536758278591 7.839148051179218 0.0 4.00957717743112 -0.6777616339277975 0.0
129 2 1.147529440348264 1.771278128076471 0.0 -1.4506002633750654 -6.330903524225419 0.0
130 1 12.942896905105982 14.89317022601865 0.0 2.3462452218395478 3.7780046033115 0.0
131 1 19.7141861653044 5.60493176585012 0.0 -1.6113200114742376 7.377008132028697 0.0
132 1 19.446696756153205 6.837133745502725 0.0 -11.101917720078667 -3.676162444949605 0.0
133 2 1.946362428263371 11.104988009710842 0.0 8.501204548514172 -1.9810625201658012 0.0
134 2 18.997373783624777 3.385303421157823 0.0 4.60781229560679 1.8627483736871902 0.0
135 2 2.3687262531956983 14.106034859955237 0.0 1.5391650261541137 -5.595113589429027 0.0
136 1 13.1699403687994 16.932443260580985 0.0 -6.959889166028384 4.169838037930184 0.0
137 2 1.367880755982896 4.349166385773578 0.0 -5.9000795794223055 2.3243801974973595 0.0
138 1 6.177255568305812 18.337994177564592 0.0 0.8786690231401285 -6.957197098283857 0.0
139 1 14.359106267363515 11.76797505199311 0.0 4.107711887656969 -7.770962524157608 0.0
140 2 4.863818947043622 0.633590398532508 0.0 -18.791050048544435 -17.939669998179756 0.0
141 2 6.248057938091429 11.795562759802381 0.0 -6.372215443671417 3.562591190239363 0.0
142 2 0.9263290204634964 14.480992690733308 0.0 8.766164696281484 -3.086042953592194 0.0
143 1 10.621668496538252 13.957012272103306 0.0 1.546702247767819 -2.1742400257887264 0.0
144 1 5.059181057764377 18.061463747616887 0.0 -9.424546187172204 16.083703993499938 0.0
145 1 1.6087280814797327 15.235126224424729 0.0 -19.092946843856414 7.017824993077408 0.0
146 2 3.7865877787355413 17.874856063139152 0.0 -3.130191609786788 -1.324099694592352 0.0
147 2 12.76979242432161 3.0139099440073456 0.0 -1.0708545870438069 5.280602657873854 0.0
148 2 17.91215431962648 17.053792317245776 0.0 -3.8850801219119027 -2.519515228302185 0.0
149 2 16.220789879308697 9.918013238536364 0.0 -0.3155939385589098 -0.41235303393249595 0.0
150 2 2.2064728074715654 1.2736064977102806 0.0 1.286108076238376 -10.554297663119955 0.0
151 2 18.787371184855164 13.488179315876442 0.0 8.876351484098725 8.102764867332532 0.0
152 1 11.30424978208292 2.561996370335808 0.0 -13.773902588135835 8.31354882111173 0.0
153 2 1.7881128340636485 5.202939181060981 0.0 -10.562818794045059 -4.115741353559874 0.0
154 2 11.07281012260156 4.779696117895911 0.0 2.0660804071089265 1.7793132250096515 0.0
155 1 0.0667161129279715 14.655572236363177 0.0 -17.003327248221886 -4.729901810479754 0.0
156 1 10.484068352747828 13.167792320189568 0.0 -10.023620425052492 -21.569061741466378 0.0
157 2 2.649673869237623 18.314435640930554 0.0 -0.762610938501289 4.395936721031949 0.0
158 2 4.501647103218814 17.462937294711658 0.0 -2.7244596044933482 0.09412215586998018 0.0
159 1 4.365183311240013 7.543732894366659 0.0 6.659170182079043 7.511170299477465 0.0
160 1 12.152735618714834 4.09046468060809 0.0 15.964087875918912 4.415292203336522 0.0
161 2 4.22529244169197 6.504333194033838 0.0 -1.937064201342841 2.5922908483941303 0.0
162 1 7.402896069577154 9.708716221876443 0.0 -3.5670302956569064 -6.875440750583606 0.0
163 2 2.5656563685950093 12.396436065852292 0.0 -0.23807297800196384 3.9737977318636797 0.0
164 1 14.555913492122158 16.076776390734732 0.0 -10.22315799547792 6.897041267864783 0.0
165 2 9.542023958645805 3.25348591460014 0.0 -0.5021188762289788 -5.997207160045508 0.0
166 1 1.3519637720542435 12.669914336650416 0.0 -0.3871591002068103 -17.222677848574058 0.0
167 2 17.633662601753056 1.8879708160141753 0.0 4.386309093337972 -1.656290045655264 0.0
168 1 0.09645128503175437 12.474399458639224 0.0 0.08732163466944907 -0.7171029144762413 0.0
169 1 9.118741206246042 6.180037240601075 0.0 0.8925797687043195 -2.074251221934717 0.0
170 1 17.720105211389303 0.9022506631451094 0.0 -4.220993505311322 7.4521284910431 0.0
171 1 15.738436409777929 16.972643416634384 0.0 5.698876353609195 5.4287639355817205 0.0
172 1 14.803574560196742 1.6341171596329054 0.0 5.386785861143101 2.836684516238103 0.0
173 2 15.414766976989931 3.1356565487602652 0.0 9.224538798530332 9.411207992523025 0.0
174 1 1.4026555311707476 2.681520953301632 0.0 -6.523349668485083 14.992313377971577 0.0
175 2 9.91449436068782 10.446731127736072 0.0 -10.028331670281164 -0.6430534860645035 0.0
176 2 12.444618793099945 5.165153251267941 0.0 -2.1226365319361875 10.243748550574834 0.0
177 1 19.756684973760574 12.013312054201998 0.0 0.5105438760657017 -20.439535328597753 0.0
178 1 11.437342785742786 9.194282857614025 0.0 -2.551397127024629 -3.3566624488662598 0.0
179 2 14.06834068054348 4.356229204549402 0.0 -1.9379512126253553 9.529538782722872 0.0
180 2 10.669553978540726 8.033652091391744 0.0 -0.3941517044533016 -1.6896039593524912 0.0
181 1 7.85642777425164 9.44423970482016 0.0 8.583571492150998 -3.9614090988281876 0.0
182 2 14.651703788444916 3.2993351354456033 0.0 2.978372247172343 -16.070815147986785 0.0
183 1 16.935414367950692 1.56962132334982 0.0 14.735895376514476 8.99644016238317 0.0
184 1 13.061680806145716 7.88004198709416 0.0 0.5745629275416001 9.147988420289657 0.0
185 1 4.367159516758015 3.354905628961043 0.0 -9.245527444581775 -11.960336117653629 0.0
186 1 4.4671466374526965 12.399590929566921 0.0 9.062023105259923 -7.093501068078549 0.0
187 1 17.574544747175405 14.79754928312199 0.0 -6.736656680421308 -3.035716796638085 0.0
188 1 14.929674921285857 4.161818186984047 0.0 10.533586513631395 6.585859969098834 0.0
189 2 7.4179766097839455 12.572061017830164 0.0 0.5228609754258704 9.206157763075725 0.0
190 1 17.002508573496762 0.8719449071417607 0.0 -0.9161274896285857 3.73791852909212 0.0
191 2 19.18261677204405 17.009481266900963 0.0 3.1286925251454227 4.293936179444308 0.0
192 2 6.092295188252918 19.157354783356794 0.0 -8.020049554046306 -8.955286458202934 0.0
193 1 17.99331386340044 8.3089207081025 0.0 -12.770516970070242 1.4774042745273206 0.0
194 1 14.767452186669706 11.051199764738627 0.0 8.855712603533831 -10.298674498777663 0.0
195 2 14.36782703142457 10.12841787443626 0.0 5.092740218299802 -8.733302068711325 0.0
196 1 11.557528155871898 3.7915380653590636 0.0 -0.9560712310719147 -0.6385441098716703 0.0
197 1 6.70644212837366 10.801664098536678 0.0 14.04481648118028 0.8625365802949475 0.0
198 2 2.65581950660716 2.0623956060868096 0.0 -1.8936770452505451 -7.4176398133566 0.0
199 2 2.6447180425341874 15.205868235755288 0.0 -4.407623611981683 11.283104574856795 0.0
200 1 7.5904036720925046 16.904341029564605 0.0 -2.4456821024934765 -21.83049531181422 0.0
201 2 5.357398658750516 13.591601739209663 0.0 1.7359216836820364 4.235251354408167 0.0
202 2 19.196331169783544 8.982393107388985 0.0 -3.757762115212397 -6.045077117619293 0.0
203 2 2.1246956234228453 3.8123810637850304 0.0 -4.33059562669084 -1.0318969607811963 0.0
204 1 1.50646002404798 17.72305826491866 0.0 1.765294094390849 -23.023999332724397 0.0
205 2 13.793792005905592 2.542718194830814 0.0 -2.5944762617167494 -9.965466790613426 0.0
206 1 8.974004551610642 6.923651254352179 0.0 7.667450987456555 -11.370427634888758 0.0
207 1 11.250943290309833 12.446711825958229 0.0 9.363149660859099 3.4354735983422726 0.0
208 2 0.27234093394545783 0.36303063515237827 0.0 4.723932213224687 16.933432727183018 0.0
209 1 3.092133523112635 17.28595397731192 0.0 0.2596613735293393 -5.010259872686902 0.0
210 1 7.84554340456205 11.671761325729557 0.0 -5.179570122902299 3.1904897987204075 0.0
211 1 1.6081228967719745 11.96622104777218 0.0 4.581512363362039 19.008779908937452 0.0
212 1 8.21902553261179 8.5772813771742 0.0 -7.4785311666734415 9.606264408699948 0.0
213 2 15.203917604418061 9.1297304686191 0.0 3.3290338421743924 8.474672903152348 0.0
214 1 5.580430887069735 10.003021091241154 0.0 4.373930448778723 0.4226802390523448 0.0
215 1 1.432757240966659 10.255220051588019 0.0 -0.5507408745131954 4.491730539959153 0.0
216 1 0.6347571550606328 15.902416952882934 0.0 17.558720464423292 -5.746270993781538 0.0
217 1 4.944898114298241 7.8563141545789055 0.0 -16.01527385202303 -7.499520086690729 0.0
218 1 11.765021152909782 13.339240289951098 0.0 2.232751412377676 -2.7476167606329067 0.0
219 1 10.50537288033278 19.28975937518252 0.0 4.175309150042648 -14.401116944313321 0.0
220 1 11.354757877006515 7.201606169376126 0.0 8.293538522824795 -9.608346385541255 0.0
221 2 12.49664575190253 13.642315305141041 0.0 3.230158184043241 7.140963448910966 0.0
222 2 10.546592400020856 15.777160083844816 0.0 -4.764105792027161 6.968127993074869 0.0
223 1 6.761314054734817 9.529864343136042 0.0 -2.167937359093408 6.336699886527919 0.0
224 1 9.561945757718917 6.456703126812468 0.0 -11.39952398531152 4.487532356156916 0.0
225 1 4.267808419444874 4.000281231698213 0.0 5.658869546178956 -7.676459020141019 0.0
226 1 1.9626459807888104 2.2707457142273935 0.0 20.150470323839773 -6.189389503950264 0.0
227 1 8.085003978839032 18.060532862161406 0.0 5.550865774960159 11.348142799457193 0.0
228 1 15.318077292451079 1.9630977294107188 0.0 12.868295057761536 -4.034102489031583 0.0
229 2 19.65313885209878 1.3757111361345513 0.0 -6.424032447042299 4.788235094619615 0.0
230 1 5.189160250995101 19.123915789197554 0.0 5.7972228313427605 1.3821254177741435 0.0
231 1 9.716559294918973 18.589709713728325 0.0 -3.882068089432878 8.132125679927324 0.0
232 2 2.6147023550295168 5.782914713990182 0.0 2.6452819276560464 9.953683002369617 0.0
233 2 11.368434712803042 17.196284234609205 0.0 -4.639089650979821 -3.1684616735631392 0.0
234 1 13.211379193809874 16.070963916059604 0.0 -4.348925462000976 -9.093171351431776 0.0
235 1 7.211306504169498 11.228032807240623 0.0 13.26887277325469 8.94371659167087 0.0
236 1 12.635905341960507 1.5585731283480335 0.0 7.32444809574572 -11.03521230757968 0.0
237 2 2.122494698208129 8.718331319820487 0.0 3.4963903956687403 -0.3015230737987622 0.0
238 2 8.60724317339544 11.040000536910112 0.0 12.450371565653523 -3.779207874367001 0.0
239 1 10.072953975041935 19.567206444517637 0.0 -3.398656639845505 0.9257256624987421 0.0
240 1 16.159301302331247 14.02691979172365 0.0 4.412128830930135 -3.8338881529454714 0.0
241 1 8.634523072220476 11.841262528445107 0.0 -12.092362846565354 5.084962899504725 0.0
242 2 10.409841263092177 9.53987882303834 0.0 1.033177672020028 -13.935822453168145 0.0
243 1 18.576467559913596 16.16077830715298 0.0 -5.746768237647291 -9.426832485984837 0.0
244 2 10.753934027171285 18.615613468778466 0.0 1.4039870661203102 -9.713623954076395 0.0
245 2 7.5842114831904714 14.450116407435736 0.0 6.155290148079182 -2.1123898103402152 0.0
246 2 13.69018147376829 5.62743327605483 0.0 11.062540947229657 3.451923552391733 0.0
247 1 14.95166057730061 0.7167389603814039 0.0 10.97317722150317 8.66110348034172 0.0
248 2 19.487081413153575 4.353915267177944 0.0 -11.393815427107032 2.2101309769064343 0.0
249 2 10.481403376335544 5.48679181907625 0.0 9.707704343280971 -7.008996951745139 0.0
250 2 9.641591263135115 17.64841431661496 0.0 -6.2409580550731 -8.623067825915058 0.0
251 1 11.172985458851027 13.21380529118214 0.0 5.164840510963538 10.984551720378562 0.0
252 2 9.593322021068595 11.35907900065727 0.0 3.834726824675626 -6.762067861471087 0.0
253 1 18.519432888123205 14.96969177579355 0.0 9.496468510424204 9.916788416504076 0.0
254 1 3.398804451351573 14.863878144589773 0.0 5.130163622932264 -8.513560842635625 0.0
255 1 14.430397391177893 8.54891091665933 0.0 -13.03958943102484 -1.8236126935452754 0.0
256 2 2.858179217904821 3.2700768664335835 0.0 8.099027377711904 -4.676351713943879 0.0
257 1 5.152200431308546 9.790419060771383 0.0 -2.6170782619799877 5.5282769881785105 0.0
258 2 16.354951480265374 13.037162608366 0.0 -7.528501517665608 -8.822862838546701 0.0
259 2 7.629128125695368 0.9645947629647292 0.0 -4.908661224124356 1.721474030966113 0.0
260 2 7.27737812959314 17.85468750198237 0.0 7.779692140272609 -0.5818670464296057 0.0
261 2 17.417100557021158 6.468796540312964 0.0 -6.046909433905414 16.99874129527566 0.0
262 1 18.27750239462704 8.744629754389168 0.0 -6.361270565593713 9.564496161819655 0.0
263 2 5.580275068154549 4.348840930984394 0.0 -4.466799771098443 -11.370634290152674 0.0
264 2 6.690180550528394 1.4014259413715806 0.0 -2.277634455019759 7.827922601317531 0.0
265 1 15.84958772362598 18.282486685585344 0.0 -3.277116284850939 2.3971084838422763 0.0
266 2 18.3105204807417 14.203695647628855 0.0 -5.108039173005116 -12.830735675085062 0.0
267 2 18.858119457597027 11.28555479899594 0.0 0.8582765986358992 5.885589141066179 0.0
268 1 15.560308558637383 19.385731522738798 0.0 2.257572512088273 -0.42058488384333714 0.0
269 2 14.990631843954848 14.51604073926865 0.0 4.772169055853593 3.3611822847071324 0.0
270 2 8.147745015222727 13.392587790055785 0.0 -0.36306687527053577 -2.619117306772476 0.0
271 2 8.104127966636796 5.896989157627487 0.0 7.058464432292675 7.505117606931746 0.0
272 1 8.97877825593571 4.999063826455775 0.0 -8.150808303475204 -1.7061640701258103 0.0
273 2 2.359830987104932 16.127467084841168 0.0 0.057059338981481265 -5.828050648489106 0.0
274 2 1.0053614404006925 9.270381635273102 0.0 -1.691177972212845 6.1777559558673545 0.0
275 1 6.239617361094889 14.276271441993531 0.0 -9.922970022354397 -8.18749745113583 0.0
276 1 17.35506922477884 9.462331234564898 0.0 6.281764184344673 -15.732857758444677 0.0
277 1 7.478983735847173 1.9955752358015517 0.0 7.694008031587923 -15.07237748404082 0.0
278 2 15.92567866559149 4.547991285865446 0.0 -10.601480167870793 -7.1529711276466195 0.0
279 1 1.2016738757115706 3.206525118631425 0.0 17.663284821897772 17.15046160540577 0.0
280 2 1.7957095795530074 0.16361529340496803 0.0 -10.909766122961564 6.133817105909661 0.0
281 2 6.710689350201673 8.275908594488355 0.0 -2.8487908513352385 -1.5861857446000025 0.0
282 1 8.411241123476835 1.477809283204912 0.0 -12.745003677307022 1.6961868047303974 0.0
283 2 13.582001273077504 1.4731705222659526 0.0 -2.0596486656828144 -4.07536019945079 0.0
284 2 14.084327744121548 12.583650721977529 0.0 -8.267600891281393 -0.04222755986429698 0.0
285 2 10.756046409359392 11.768791206335075 0.0 2.14348199294011 3.893291484613965 0.0
286 2 4.175902202544454 8.639663511812833 0.0 8.14483155027276 11.670468226930014 0.0
287 1 0.904891086153235 13.278579802057166 0.0 5.662170669355833 0.31437960313456764 0.0
288 1 1.5302721098669028 18.32897594699835 0.0 0.5102683037808865 -15.76640407037335 0.0
289 1 0.5289805646783512 6.1509014609802115 0.0 -10.976330363880027 -1.6141342911627974 0.0
290 1 14.994248843670453 18.825759122727828 0.0 -7.802243085821056 1.676107434203352 0.0
291 1 1.3872686269639887 15.92068269426699 0.0 0.541012580198528 -4.4467999434299035 0.0
292 2 9.04567081136138 18.812229348779564 0.0 3.3929888159669495 0.0098616480167353 0.0
293 1 17.853468174390727 9.890947578513481 0.0 -3.1642883742347223 -11.807656340343437 0.0
294 1 0.3350489468720832 8.657499265089013 0.0 -6.135091215302454 3.6379897383435424 0.0
295 1 6.530751271243995 6.863591395561908 0.0 5.230709761205095 1.0250802756143569 0.0
296 1 19.450394416608294 14.276735908229861 0.0 -7.274767034408568 0.9945289167123385 0.0
297 1 4.446411089603186 18.53618653964595 0.0 0.7505210487115866 -12.923797792181075 0.0
298 1 13.257316193054304 14.453470159999458 0.0 2.238954565395921 -2.0544589251985617 0.0
299 2 13.789989533072314 3.438992022751967 0.0 0.5649876008526371 -8.500129644020886 0.0
300 2 5.703168378347833 1.5448991604842164 0.0 -2.374139185758453 -0.3934806004907607 0.0
301 2 0.3884132154701005 3.5712166945048978 0.0 5.600632998043427 -2.027895091555484 0.0
302 2 4.277895509402014 15.128270509886178 0.0 12.454561273775342 5.672283093347021 0.0
303 2 3.095986326485847 7.500960077166432 0.0 -3.2150190436471027 8.603758081507282 0.0
304 2 7.116996553773317 18.85279348632438 0.0 -8.952704504477948 11.194950531663187 0.0
305 2 11.85811225450705 1.9764871084660056 0.0 -12.347223674672072 1.090984625603284 0.0
306 2 0.6094143762468482 2.6660986908490623 0.0 8.927725795476789 2.7987488540183927 0.0
307 2 9.229639241320971 1.2482819196480257 0.0 4.343595763672787 -0.8995185003594955 0.0
308 1 3.508205109009294 16.4334641477059 0.0 -1.433134380402868 2.4504975234979103 0.0
309 2 7.5288330610143275 3.37720988394227 0.0 4.813199644409546 11.17077930404942 0.0
310 1 5.464576998950408 11.035426175302124 0.0 -11.289947754231141 -5.183571757946552 0.0
311 2 18.652716918059504 19.58407695721509 0.0 -1.4693242985420172 -8.496085835964895 0.0
312 1 8.773142009839725 9.022480201739661 0.0 9.0733825749532 -5.511116585456872 0.0
313 1 13.83761165174318 7.640745129679958 0.0 -4.610033712368771 -7.043915344822406 0.0
314 2 11.56121254094049 16.128888266646097 0.0 -1.4657444475615584 5.80522669808798 0.0
315 2 6.238096969191077 17.044912650603404 0.0 11.295026343653232 3.4898812238934087 0.0
316 1 13.316675221820025 15.511536005108727 0.0 -7.324387919354951 -7.378096433857809 0.0
317 2 17.302722679150044 15.549135583688193 0.0 0.22625141309941277 11.106575609195431 0.0
318 2 17.525313811943903 7.767430697142346 0.0 2.3959807902833927 8.3595202184466 0.0
319 1 2.9919948072996725 8.689146757994619 0.0 0.7154822910689277 10.742284899689468 0.0
320 2 7.683503002747636 4.450447882459848 0.0 -3.8041281819694754 5.932693106296828 0.0
321 1 6.0974973876306775 3.7426727572454976 0.0 -8.707077212588537 10.010831868283086 0.0
322 1 18.593816080900933 9.62700753171052 0.0 -11.754353921419348 -14.394404015386668 0.0
323 1 4.394898726420447 19.2538931631788 0.0 10.650600149386273 -16.931352121335703 0.0
324 2 12.101006306754108 14.520147443926938 0.0 -0.18560541407754655 4.00258665092314 0.0
325 1 10.82023852361815 1.9664578102229164 0.0 -0.02197745191949962 -18.62917235685497 0.0
326 1 16.183518453699882 2.515079373303729 0.0 4.587603169203166 3.2762310717586374 0.0
327 2 14.222396514276546 13.58545367734785 0.0 4.200526281453011 -11.164255852860261 0.0
328 1 4.744952278074267 4.5092971807005675 0.0 8.272752075834354 -3.0295020619047244 0.0
329 1 5.011259231565949 12.077023801610679 0.0 11.014179890304225 -0.5045340381107061 0.0
330 2 18.445253515759347 12.367679318873737 0.0 -9.885246588187918 5.915250881782949 0.0
331 2 5.700702431915351 5.455071854347178 0.0 -3.885392200281227 -6.371855154975282 0.0
332 2 16.544065505161832 6.968647265189642 0.0 -3.3564574428444605 -1.2834353541485257 0.0
333 1 18.23006741883671 18.72613379792973 0.0 -8.133109440479629 -12.97961849434798 0.0
334 1 7.275068119427057 15.372200922904554 0.0 -10.49457499879709 9.680492992993468 0.0
335 1 16.922703571191832 2.556564457999575 0.0 8.483721945452466 5.2398646934126205 0.0
336 1 18.34958569040011 10.474146767814663 0.0 1.205948408654119 3.5809571842948276 0.0
337 2 16.311087763617273 0.0010036040792797962 0.0 12.662097400137203 2.077061554728851 0.0