ITEM: TIMESTEP
0
ITEM: NUMBER OF ATOMS
400
ITEM: BOX BOUNDS xy xz yz pp pp pp
0.0 19.7609 0.0
0.0 19.7609 0.0
0.0 10.0 0.0
ITEM: ATOMS id type x y z vx vy vz
1 1 11.649616916000566 16.876143682774586 0.0 -7.091122932891933 -4.497434997203455 0.0
2 2 6.286426842016831 6.6934618977957445 0.0 -15.641098899165437 -3.176513462880853 0.0
3 1 6.0209944609041 2.2036935446668315 0.0 -2.0578120427711637 0.29483748880599997 0.0
4 1 2.894783847108757 16.032619876618753 0.0 -3.6391898370641966 -9.585573905130516 0.0
5 1 16.737607570411086 16.59967442920629 0.0 -4.604026193537481 -8.125453790150914 0.0
6 2 18.191744166417863 13.172904501774813 0.0 -7.54100449087389 -2.32549034467246 0.0
7 2 6.540625696030174 13.470513045628053 0.0 0.28868715424573793 -3.985749524158103 0.0
8 1 17.47692878386477 6.224716048821919 0.0 12.808333507437693 -2.5633760193287425 0.0
9 2 12.186716147422835 6.172011725865771 0.0 0.5647997377436071 12.451725597807501 0.0
10 1 17.407742351603005 2.9137490239547574 0.0 -0.016236235408216976 0.5920445226585918 0.0
11 2 16.68129826655291 17.98338750192921 0.0 -2.557917441198122 -4.557691294867917 0.0
12 1 3.186569975500568 13.775082512828156 0.0 -6.3521680243514815 -1.135291363897691 0.0
13 2 7.462850932402891 4.422659026933139 0.0 5.872336967688578 -9.091815308844449 0.0
14 2 9.280816950977275 17.358703092966515 0.0 2.3967455789963963 -1.2233440067900725 0.0
15 2 8.600124436111681 18.74876532500325 0.0 -5.1391142265045495 -2.8331960843240087 0.0
16 1 13.578275640260777 1.046940051559046 0.0 -3.454926657494775 -12.155740542567942 0.0
17 1 14.209822764971003 11.13313113323533 0.0 -5.688422369805194 -7.616846623654074 0.0
18 2 8.84310453573328 19.656309869762463 0.0 0.19599739170242575 -4.448335642393902 0.0
19 1 10.970603434598196 1.2557728050664123 0.0 -9.959069350119002 -0.6196462802741624 0.0
20 1 13.58541168829294 10.64851722573813 0.0 -1.1245194285906632 -0.004541342584007733 0.0
21 1 18.59115889954598 18.0280413384647 0.0 -3.604995766492813 -2.423892119987081 0.0
22 2 5.675213950164605 4.175739480823019 0.0 -10.938691157231652 5.9220817658464195 0.0
23 1 9.837378078075552 7.102199814946444 0.0 1.4939793102868348 -8.759697288752454 0.0
24 1 15.472632402969094 17.73939844543076 0.0 -10.328619226844946 -4.925135793754236 0.0
25 1 2.5425600165126414 6.061126118373957 0.0 -1.8816010640445227 2.588503229974412 0.0
26 1 5.990944183587435 14.104959710977164 0.0 3.597666100079036 -0.9475442842061762 0.0
27 1 2.7928112129989446 19.281959516139246 0.0 5.112317185219691 -1.9491398614873492 0.0
28 1 5.332621975180335 11.262077076948941 0.0 2.4368302226551544 -0.756530719245297 0.0
29 2 18.58552723501423 4.283590654816846 0.0 -3.61649561042298 -2.972965091935102 0.0
30 1 18.77930868452041 0.16704955081972622 0.0 -10.030331503034342 -14.39370648382347 0.0
31 1 0.5259525087294763 10.938018138105056 0.0 13.151792842440832 -8.919718592961992 0.0
32 2 18.1900430948931 19.016465904395787 0.0 -6.972184436238035 9.124167435408996 0.0
33 1 13.005919851850091 12.110390705596254 0.0 6.240610589481598 -11.159725085533307 0.0
34 1 18.17379702612762 0.7177095123910865 0.0 13.838238285569325 2.7016883522733153 0.0
35 1 19.530655670958666 8.579440042120897 0.0 -4.643569513084279 -1.2994756764162474 0.0
36 2 16.62319034433132 3.1926089221583993 0.0 -6.58180473559775 8.177616213061 0.0
37 1 18.661113259307704 7.414981783594691 0.0 -1.7126194652885907 12.792925295417685 0.0
38 2 18.645397361877876 6.526545090294502 0.0 0.22750991509785917 7.345583542595304 0.0
39 2 12.972055679073058 18.586279464047436 0.0 -2.0856486279869344 -3.3609099136000555 0.0
40 1 1.3182123799344303 5.393463089447268 0.0 2.3279634653179855 6.623731919739137 0.0
41 2 15.666310243263554 9.663497265663516 0.0 -4.896589905944884 -16.864965542633318 0.0
42 1 14.097064390609349 6.420372418730753 0.0 -0.4793308328944479 11.661482433622446 0.0
43 1 17.598656155769497 0.7351488755776537 0.0 3.346580850075763 11.749174658407373 0.0
44 2 17.48047959207319 19.454828354596025 0.0 -7.168491657788959 7.192753377641699 0.0
45 1 9.264356757225306 7.706916094346124 0.0 -8.205171858161163 13.4589166854587 0.0
46 1 3.2067697019287915 15.70457294450335 0.0 -1.021366070431294 2.48653179681524 0.0
47 2 13.97950120119464 7.502097089090371 0.0 -9.665384662123124 3.312388671185791 0.0
48 2 13.748425863156092 2.314454444746351 0.0 1.7584936868523915 7.971354318843325 0.0
49 1 7.892706842973213 9.381175453780006 0.0 9.71147191563054 -13.368906281069032 0.0
50 2 18.597935083857255 5.369425795679875 0.0 -1.7267895006395233 -2.932566388722274 0.0
51 1 12.155937175523933 12.516723477445533 0.0 -13.27539539855305 4.591735822267237 0.0
52 2 13.216150705223543 4.948109004955641 0.0 -5.2304257148831 4.59961754761436 0.0
53 2 7.197777455884424 10.209792607958839 0.0 4.359449401986577 0.47490004401662517 0.0
54 1 6.532550084886476 17.63706243426955 0.0 2.0474089285827213 -4.535552251449559 0.0
55 1 18.433818037489473 11.508708299577219 0.0 7.146732602469377 5.806111857471258 0.0
56 1 2.061664688108444 19.605642104703353 0.0 13.615485448255695 -11.231719977259893 0.0
57 1 18.340312270915625 17.59350097308752 0.0 4.730114022250615 19.83199897291 0.0
58 2 7.683047297905302 18.087754244841232 0.0 -7.67641344709526 -4.061513691951643 0.0
59 2 10.097639591250127 17.71804339739898 0.0 -4.7596973292887625 -7.914011860151353 0.0
60 1 18.179954591043305 1.491965799757196 0.0 -7.426383138009647 -2.7428546038422805 0.0
61 2 0.9983894412637653 4.55108276546814 0.0 1.4587978866073639 -3.6924611443172872 0.0
62 1 16.618354333731283 13.747639266364214 0.0 -2.0805881377452438 1.6126223456813134 0.0
63 1 1.3279916097264708 8.756205511688266 0.0 -3.7634794940817256 -22.635850772316648 0.0
64 2 6.414179334264224 0.6584800942310741 0.0 -6.047982233085482 2.176356376550456 0.0
65 1 15.05526402143614 9.137166536170476 0.0 8.095072600846835 -0.8943618428059223 0.0
66 2 14.448113993872674 15.732644053807782 0.0 11.141908162656096 -7.4893949746022415 0.0
67 1 2.805028988690521 8.189953195194345 0.0 4.185068247770338 8.240541604194117 0.0
68 2 1.318017676492705 10.612428833334182 0.0 -4.765493126019055 -7.955480581625233 0.0
69 2 6.832839183939514 8.52456004078607 0.0 -7.338109143402464 4.824328357177248 0.0
70 1 4.363159257851507 4.929181418202756 0.0 -18.089268828911536 -1.6514772779398383 0.0
71 1 6.58993316204053 18.32014978211597 0.0 -10.755696552560035 5.422666069705888 0.0
72 1 14.575745628430111 8.000420941970207 0.0 14.245673971857194 8.560853753681497 0.0
73 1 10.434196952713107 1.8457988873294153 0.0 -8.448585012357928 1.1024972970011748 0.0
74 1 10.530868265429273 14.522812352365467 0.0 -1.5642062474813556 -2.3875585920303637 0.0
75 2 3.5630371527535667 17.6597190572661 0.0 -0.8157645958864888 -13.622209303437588 0.0
76 1 14.239953227512757 10.390491174656681 0.0 7.846299677005527 -14.236532330128563 0.0
77 1 3.7383676582693632 2.1162848721462915 0.0 15.267074979153046 -2.6019162776450626 0.0
78 2 5.65922061035534 15.727515757673805 0.0 -2.4097882172576495 -6.323882033612961 0.0
79 1 5.325305484915444 3.209788182034645 0.0 0.8574572993096338 -4.535317051525692 0.0
80 2 13.614335187805002 8.290441512169492 0.0 6.329323670134754 -3.672302686512502 0.0
81 1 1.7509679929990882 5.708787405188308 0.0 -14.553325185163354 -13.126969689383406 0.0
82 2 4.5179625368295575 4.026384788284402 0.0 9.781215224131575 10.119119574468465 0.0
83 1 19.550918212778946 4.009801896761915 0.0 -9.756143084802591 22.21844218588456 0.0
84 2 2.3014559117615017 4.113438541565262 0.0 0.02183477368175907 -7.9425849510251805 0.0
85 1 5.704686584894238 6.073395996120536 0.0 3.0942381820809817 1.1705755170615482 0.0
86 1 14.990064090278397 14.47508828152576 0.0 -3.1817993762542933 -6.700688759415855 0.0
87 1 17.18308052430689 7.719069137385906 0.0 -8.093106414209366 -8.683970435334976 0.0
88 2 15.272852881047905 16.261335613064468 0.0 -6.604125438418036 -6.5329454595957355 0.0
89 1 17.143172211645318 17.340042079135834 0.0 1.5929510184410587 3.327344217462236 0.0
90 2 4.346882801492809 1.5509536714518228 0.0 2.948524756177208 -3.8072479202605085 0.0
91 2 16.507242748967364 15.585470137519064 0.0 -4.073733078159634 7.488793013727854 0.0
92 1 11.994785805525355 16.354915610360866 0.0 -9.654973428945489 -4.70116233424352 0.0
93 1 1.8285346769413806 9.9185508051962 0.0 2.4455862335023473 -3.576454386204344 0.0
94 1 1.1215199630101762 11.704354442624709 0.0 -18.719564257398847 -7.0031210787525895 0.0
95 2 17.77721632439654 12.31251675695947 0.0 -8.437231633017847 8.013783739285282 0.0
96 2 11.865090681481517 13.52114088208884 0.0 0.35407710539006526 5.669389449887241 0.0
97 1 14.508797303602885 14.757850535022317 0.0 4.010396485252137 -3.365019925129103 0.0
98 2 17.81581244104425 4.753156032935449 0.0 -0.9316133581276758 -7.054829954313739 0.0
99 1 15.31382903171966 12.091677610373774 0.0 -7.073506495899041 12.105457608525183 0.0
100 1 14.090699405499262 1.4231007331483008 0.0 -1.153326225903441 19.781994085021946 0.0
101 1 4.387588564740468 17.769952886629632 0.0 -7.0800260299227 -10.557469058862393 0.0
102 1 7.683004467347396 8.325281815679395 0.0 -5.565056019387531 -10.547644795373373 0.0
103 1 4.273322170200102 12.134413106745896 0.0 3.9590447290293205 27.306213376767445 0.0
104 2 2.0224248822526114 3.3148348503686518 0.0 12.392311127161461 7.566547791866712 0.0
105 1 2.5687630058014492 17.728857477027105 0.0 14.841640290317388 2.115894018235183 0.0
106 1 16.793452827921268 6.577121076019108 0.0 -0.9676289851923073 0.9603549198378327 0.0
107 1 18.822518458028853 17.4358213653348 0.0 -13.581546969115678 -8.656129450327509 0.0
108 2 12.655007457382416 19.583273150260943 0.0 7.991226095110034 3.7492393149365246 0.0
109 1 8.218079617452938 6.087214137697697 0.0 -1.069069378339515 -7.979309830579486 0.0
110 2 19.46632904807108 16.442252761786094 0.0 4.53770962412256 3.1706298675866127 0.0
111 1 18.969703603138893 10.547278450910905 0.0 -12.714537060019795 10.89881651081888 0.0
112 1 5.5611693747884265 18.710762070436456 0.0 16.29671609028394 2.2085785052419853 0.0
113 1 14.516850234985512 1.84712608660994 0.0 2.8469716419733713 12.942126335194821 0.0
114 1 17.45007470041631 16.83300601618254 0.0 -2.3726485992558706 4.886594825842 0.0
115 1 13.325783291460237 3.0112645082329403 0.0 -3.8848561091935245 5.090073970217313 0.0
116 2 14.93195113255732 19.238643191338937 0.0 11.730574479840246 0.8550288146486912 0.0
117 2 4.401866625077435 16.92202432217074 0.0 -10.186084283632795 5.6133017224459465 0.0
118 1 0.6288223952285995 3.592525717094698 0.0 -6.710345448342014 -5.219886862935346 0.0
119 1 1.032973621949478 0.45831811509394166 0.0 -9.106963553891742 -11.380897852185807 0.0
120 2 13.570939766011914 11.645017676800771 0.0 3.714864314188406 6.427528133950596 0.0
121 2 5.0638852317621765 15.17666029599489 0.0 2.7552787584348253 -0.521194582436746 0.0
122 1 15.65489063566801 18.440628903309648 0.0 -6.670497591584867 10.894922198020554 0.0
123 2 1.8512506005484486 12.972772093570688 0.0 -6.954264644984754 9.057653101533974 0.0
124 2 12.714842609060517 7.718100925363538 0.0 -2.6949371915255846 6.505047798150937 0.0
125 2 18.774426595685085 2.4179412319120317 0.0 2.6385696665099263 -1.1118599250330363 0.0
126 2 13.922169721008762 13.78236341588627 0.0 12.786810955691514 -3.393216513045278 0.0
127 2 8.374706185030334 13.519504831530531 0.0 1.5054805196736711 -11.381614212627712 0.0
128 2 10.137815644769894 16.158449974423625 0.0 9.296036742430497 7.195192300533081 0.0
129 2 8.92589359606033 1.7322120003404264 0.0 12.39544798390585 5.335887930272345 0.0
130 1 15.735151642515586 8.575787781028394 0.0 -6.199584681737222 -18.037070298406434 0.0
131 1 2.3532035402630287 16.104206941542266 0.0 -1.3406822384853272 0.7310973701008784 0.0
132 1 10.103801222233235 7.819317127318022 0.0 11.625043873591238 -7.2316608581079524 0.0
133 2 8.755366287434923 11.568588395961127 0.0 2.479226770777057 -0.07705015180910549 0.0
134 2 15.207544732992458 2.2823017010381887 0.0 1.270988202720747 6.0538178696659966 0.0
135 2 1.070742014527645 19.412858753208823 0.0 -2.2490003524050666 -3.910813549288061 0.0
136 1 7.905723310966504 19.265848257083153 0.0 5.462075638948266 3.996231772471153 0.0
137 2 3.56307761957109 1.0153169214606177 0.0 0.7549717894694664 -2.863504613057747 0.0
138 1 4.0214404625938585 15.916159148005555 0.0 10.891425554800534 11.225442507958418 0.0
139 1 5.283779151515536 16.728000794717126 0.0 4.379122362451596 1.275074243275455 0.0
140 2 12.101054242567969 9.683076576225176 0.0 -3.400201742942339 -1.7729057013179823 0.0
141 2 7.285821768471326 0.5988832212418133 0.0 -2.1986618607009665 5.84176225720509 0.0
142 2 18.442975613024178 16.70355210843655 0.0 -6.027494223263618 2.9726697290898443 0.0
143 1 4.566994904957972 8.055521419970836 0.0 7.4721717055209576 -11.923272198567465 0.0
144 1 10.29696128675312 2.3608133152961566 0.0 4.64915406406722 -3.0729763694119274 0.0
145 1 0.9902067737689664 16.389644350213324 0.0 5.943283771993358 -5.4067116877064025 0.0
146 2 0.218204873980063 17.399629416240266 0.0 6.981237605206143 -5.09659378436347 0.0
147 2 5.732221772422719 0.17828593288586478 0.0 13.704482055326437 8.065933410403774 0.0
148 2 8.148257392910022 14.906283178092838 0.0 -4.606446100806903 3.4766008123448127 0.0
149 2 15.556664165089364 11.0364526892185 0.0 -11.460079861682559 4.1304846650069695 0.0
150 2 2.889626214292474 9.602366310813721 0.0 0.6992647650118924 -2.204740390696064 0.0
151 2 1.8707884521515792 4.8638725559369975 0.0 -3.806077694884339 1.2008340794659051 0.0
152 1 2.0497913792287448 11.96744714936356 0.0 -11.786770870249155 1.0761819784560265 0.0
153 2 8.280013153199944 4.131807354750024 0.0 2.1360752551575724 11.135729521002492 0.0
154 2 5.407308980143914 4.912858911842957 0.0 -1.600065476808382 -6.816521779829099 0.0
155 1 10.999932324947084 13.17381066172432 0.0 9.302577881700305 -4.625432615737916 0.0
156 1 17.99821912536044 5.930650040151547 0.0 -0.7548498076231831 6.805715900725099 0.0
157 2 10.07853281497189 4.351632669414668 0.0 -14.017265063530106 10.461717313474205 0.0
158 2 7.228702952009274 15.344879683752124 0.0 -0.7796355017997336 -8.014079228870756 0.0
159 1 9.70715853328941 5.9249247884562966 0.0 0.1956815218873839 -0.8951305263707234 0.0
160 1 13.70513097126714 9.975305283864405 0.0 2.9462371458896475 -2.392363302606857 0.0
161 2 1.4319305018968662 1.5863038443985793 0.0 6.295631506119181 -6.606766038996171 0.0
162 1 6.030091199944657 19.19623023036142 0.0 6.8804791938030645 0.3321147418025958 0.0
163 2 18.544024844400266 15.465403485733747 0.0 0.14063687612206502 3.321294341765135 0.0
164 1 1.0045311994123616 8.354048953276497 0.0 3.5669555593658435 -1.039239614692414 0.0
165 2 12.092715324187214 18.507290543150255 0.0 4.9134351317409415 -12.674785252694026 0.0
166 1 14.017358924750598 14.821980313982825 0.0 2.3859755068220565 2.706459322921531 0.0
167 2 3.115101759734382 6.620712429938359 0.0 -8.568950875121237 3.584869646103367 0.0
168 1 11.638545794364195 8.179592384989833 0.0 1.7186084500520953 0.4082291800341572 0.0
169 1 10.686945959779191 19.348015096672583 0.0 -1.3182566013011745 -1.6301075598611403 0.0
170 1 8.014527766951744 16.145337995675277 0.0 1.9188141746179344 -1.4570586345587004 0.0
171 1 5.18802400696869 18.037012912552562 0.0 8.128462284833738 -5.242495682777842 0.0
172 1 6.593872606671877 1.5415223553178299 0.0 5.375087577051356 1.2942948487319363 0.0
173 2 14.940158661213715 13.315066548810755 0.0 1.2334809284963208 2.964891322520859 0.0
174 1 0.34692431332049756 7.778550718067874 0.0 -0.8608769628820357 -5.226587545843465 0.0
175 2 11.435300283665537 4.180909141094443 0.0 -0.058904493765923 0.4053402496614568 0.0
176 2 18.213956681978413 9.756662410947358 0.0 -5.802475615331135 -3.712916189526847 0.0
177 1 3.912124682449112 14.89815602290774 0.0 -3.4259951183585335 1.836000915677979 0.0
178 1 15.96599985235731 13.595190635876406 0.0 -13.843167194921502 -5.226488098303179 0.0
179 2 17.5477738986727 18.40263565915716 0.0 -1.343180665987172 1.5078790393747838 0.0
180 2 12.828946762920076 17.466231126515943 0.0 -2.821283869836886 5.033810796636691 0.0
181 1 17.427260102689953 13.966738163753458 0.0 6.903313421424322 -0.7350159005926229 0.0
182 2 9.598792180557881 19.050934302335897 0.0 -0.6915566600342421 1.9137133628825036 0.0
183 1 11.950156793687798 14.980660432088724 0.0 11.282337656881538 -10.615150898664494 0.0
184 1 7.371105751764545 9.371193136869175 0.0 -6.785666683657629 -2.0396955136186152 0.0
185 1 0.3657884503679548 13.238394904162968 0.0 0.9577536727891588 -4.746381260493314 0.0
186 1 10.67530492406604 0.7701213685729298 0.0 -3.308841539658483 -4.001883100690541 0.0
187 1 9.532909120099799 13.620932647415286 0.0 -1.4099867377204485 -3.1672916399366433 0.0
188 1 14.774678118355455 4.137534747629779 0.0 -6.431443680993601 0.4473925412169816 0.0
189 2 4.938454909428169 14.140609454349242 0.0 -6.244852726424114 6.029416988034875 0.0
190 1 19.665793156535397 0.7556215423767493 0.0 -5.7355513111482885 1.1541751509559026 0.0
191 2 0.7171863113444156 6.720070676910344 0.0 7.807230962035436 5.630169164098595 0.0
192 2 7.57884342045305 11.69142794647656 0.0 -15.643488183879757 6.539794466140323 0.0
193 1 16.211440230503726 14.179668983045557 0.0 2.342309540738584 -17.156477765508082 0.0
194 1 4.881107309527504 7.128516053047313 0.0 2.982104723361448 -5.122058340105138 0.0
195 2 10.484119852847567 3.3745942330225254 0.0 0.27198142795747765 0.8384430876581486 0.0
196 1 13.339449237537227 13.138355800781033 0.0 -4.324081728510456 -3.237451919842958 0.0
197 1 9.931161795593656 12.851488663144533 0.0 -9.492525612933054 -13.635331457111521 0.0
198 2 9.729334808105442 3.089862370308379 0.0 -8.623253817602599 12.569489280357313 0.0
199 2 18.79703201995578 3.3881015322420676 0.0 4.31145623612176 -5.442674053641755 0.0
200 1 7.172433787408359 16.62848890015856 0.0 10.59140747776102 5.340419629480738 0.0
201 2 17.8993241026223 8.098436742324362 0.0 5.221247661284952 5.415730223306734 0.0
202 2 12.331685790437936 5.278912783074679 0.0 8.473681257352062 -0.5184941219204373 0.0
203 2 8.140996203872112 17.269753680297963 0.0 -8.062172948957828 8.659190068739814 0.0
204 1 13.603788977111403 0.05873098894367151 0.0 0.681354482199285 -7.139919575626794 0.0
205 2 1.4000861225201442 17.315451112892827 0.0 -2.9252467181982045 7.277899283718237 0.0
206 1 6.825219315849554 17.01289574054916 0.0 0.7766224989378344 -11.908798418492541 0.0
207 1 9.052832398014644 8.29131256502084 0.0 -6.337588936621863 3.3306849890235974 0.0
208 2 12.505866874613663 3.1493035393698543 0.0 5.2792757605066 2.704304763773504 0.0
209 1 16.034886424075804 4.867044421163991 0.0 21.069187410386064 -6.417171164217195 0.0
210 1 8.931770183627412 12.566571377876555 0.0 -15.810085960550818 10.719807230312812 0.0
211 1 5.6057848978312075 10.865561238486942 0.0 -13.135016995630659 -5.002975389688356 0.0
212 1 15.63530603873413 6.612012518805502 0.0 1.7271891726514563 -12.801337140765458 0.0
213 2 12.62513979490665 11.278767840437395 0.0 -6.324936530632741 4.812324764320271 0.0
214 1 14.54227282829053 9.538274264486631 0.0 -12.806172409481734 7.385129762819646 0.0
215 1 9.026153926286838 14.089297335244696 0.0 4.445145298569578 -5.044410872840358 0.0
216 1 12.357828786861507 15.607864280595214 0.0 -1.8162506797100726 3.129989658713219 0.0
217 1 2.860039941145813 0.20969095622091638 0.0 -17.571040659853306 -1.0550247272626792 0.0
218 1 11.391093390956174 6.882912401693297 0.0 9.896480984469848 -4.748088220229709 0.0
219 1 17.285534991447307 6.9800580533182055 0.0 -0.0325058168562115 13.364102352039106 0.0
220 1 12.461814743178133 14.349956626908066 0.0 5.643701528505561 -6.152480494456645 0.0
221 2 8.174196271044869 2.6853653556686337 0.0 0.9024497168740424 2.3342816644001636 0.0
222 2 6.2264491676882505 9.948819991465575 0.0 -2.229477372379698 4.705802682375217 0.0
223 1 8.762376295145694 17.90676465379675 0.0 17.864596955367873 3.307232175077181 0.0
224 1 11.075284303443652 11.141739331911932 0.0 0.07566640013940279 2.5304802965911435 0.0
225 1 3.971326324823812 10.164092720763461 0.0 -4.131066180609063 -0.6872038327783758 0.0
226 1 4.558780645432764 19.014867194705225 0.0 5.454510471449109 -11.723357513028423 0.0
227 1 19.158729593688214 7.117040907843792 0.0 5.401281572080074 3.389806193724082 0.0
228 1 16.23295342485965 6.63533150441335 0.0 -2.0086072789047638 -8.034091243185085 0.0
229 2 15.944995534838393 17.004394136872627 0.0 -4.4986818626844585 5.990876923028037 0.0
230 1 17.585187098894025 9.038473941854273 0.0 -0.9575578491502326 -9.413213099141 0.0
231 1 11.207135518320834 8.579753589234327 0.0 4.366533865782322 1.74187495079265 0.0
232 2 13.01106681158945 9.115563501283878 0.0 -11.94730356423536 -7.476280950910008 0.0
233 2 6.330536794048703 16.37688023875904 0.0 7.998150983552972 2.437428678093875 0.0
234 1 12.87427611208112 15.452810365262811 0.0 0.051979909940843005 4.308327150823568 0.0
235 1 18.95218183884464 0.9762508131035265 0.0 12.300486316656425 1.333353611999876 0.0
236 1 2.7090693078289005 5.024109001937849 0.0 9.304873442224187 6.7013308135184415 0.0
237 2 10.772863992872642 9.221505811414291 0.0 8.98174539952167 4.5640699628676495 0.0
238 2 0.9989842053834617 2.604856104504248 0.0 8.769522648260091 5.200185438798722 0.0
239 1 11.392092105612962 1.8228445286328365 0.0 1.8640565077086975 -2.5469831548608997 0.0
240 1 10.610930587761002 5.06693871911768 0.0 3.9403481613744993 -4.022987191011822 0.0
241 1 2.265413391614526 11.331300689357995 0.0 -6.4799488728973085 10.240856671037806 0.0
242 2 8.335912937914388 1.0795092517343672 0.0 2.091675916930976 13.863867040173028 0.0
243 1 1.8586307099931134 18.460948617203645 0.0 9.558175177345396 -0.12034315065422657 0.0
244 2 17.906757390592205 10.554737559040378 0.0 2.9887354617685657 0.508298625610521 0.0
245 2 15.411420448133802 15.37291744824705 0.0 -3.982423597200764 4.037125147011201 0.0
246 2 16.465307335712442 9.116130925972177 0.0 -3.38482652781807 6.471081377461982 0.0
247 1 13.276051182861185 15.803439072472967 0.0 -15.063576220721838 10.095663819215803 0.0
248 2 14.793916558936646 17.128659146723002 0.0 3.1839508027999104 -3.430209242922034 0.0
249 2 7.59433628836322 1.4911608821626898 0.0 3.9332248750683583 2.599463908544549 0.0
250 2 7.620190053409288 12.9457786849802 0.0 10.875521080101631 -2.1021589833952166 0.0
251 1 8.837469933693926 6.392977044904712 0.0 -3.5751858388458606 2.924001930738548 0.0
252 2 19.39800235036849 18.387804069538227 0.0 -3.0105124727578496 -3.032087338456301 0.0
253 1 14.869761550888523 7.013424149706032 0.0 0.5620559389727866 -6.160679532130402 0.0
254 1 14.74605560670509 1.1892785653492226 0.0 10.138306587130147 -7.465205063419045 0.0
255 1 3.7822588549477767 19.11723277861843 0.0 -21.87649865857283 2.1839807676327343 0.0
256 2 7.3478890775987376 5.606927844546468 0.0 5.28653521241691 -4.872698794039373 0.0
257 1 0.4444889777485559 5.5317451926070325 0.0 1.5435221688648304 4.085758939069264 0.0
258 2 2.7607506634787455 1.3943441423450047 0.0 -4.902774589635823 7.526056526762007 0.0
259 2 13.745299356643896 17.901894830709782 0.0 9.693034132387027 -3.4174631922050467 0.0
260 2 12.82448209023967 2.2252101568676763 0.0 -1.8155882842172597 6.366505281599451 0.0
261 2 3.5686352100190266 7.493672554016651 0.0 2.1462691885783305 3.676383904538557 0.0
262 1 14.598894203234035 6.684304015674336 0.0 3.735432679335849 -7.932082303626011 0.0
263 2 9.61905987760178 11.8602621422897 0.0 17.870517442229634 -7.571216665780915 0.0
264 2 14.69619746332231 18.281238431923537 0.0 1.52191461506223 -0.6854211921596987 0.0
265 1 15.684521041578636 14.4528914247759 0.0 -1.0829345910517072 -17.145052635043182 0.0
266 2 16.081270954789957 5.800155905611176 0.0 -0.35744664607012505 2.97581956135743 0.0
267 2 4.055077943562686 13.727056187774112 0.0 -4.839472542998939 -5.4519593351117255 0.0
268 1 14.741713489532184 11.752930214798695 0.0 -6.96722067944821 -1.1613546188285953 0.0
269 2 19.573858305431028 15.447059679137062 0.0 -7.5156713057419084 0.21018497233103736 0.0
270 2 2.0199895213371124 9.183296368258327 0.0 3.9308166447133535 6.150932254448887 0.0
271 2 13.048752692189762 6.350498234347372 0.0 -3.754156611275141 1.5532792660859325 0.0
272 1 8.700892079027508 4.961442631236255 0.0 4.153484225903166 2.8319595562958932 0.0
273 2 16.345552198667075 7.626468599382618 0.0 -11.483082663205009 -2.8563689950053615 0.0
274 2 8.051638090977836 6.988533056956565 0.0 -5.012265033037277 5.9866389581694275 0.0
275 1 2.754163601991144 11.040006681326956 0.0 18.096112134977176 -0.7819756232069308 0.0
276 1 17.022980694142596 15.01420101494255 0.0 5.076780129553058 -10.641952466590649 0.0
277 1 2.300877929959021 10.449970909117596 0.0 -14.088207393360218 11.616915617001878 0.0
278 2 18.26283519361785 14.198823081748868 0.0 -3.0671511468868666 8.37452872840737 0.0
279 1 5.436625322842234 1.478036678201132 0.0 -1.7989446988563471 -0.09788036061182034 0.0
280 2 17.216874636010438 9.973281338748027 0.0 1.781419206375524 0.7692516089030069 0.0
281 2 13.934515713036904 19.000349224306145 0.0 -2.908557575223189 2.170825874634575 0.0
282 1 0.43904334528337513 10.02850652956285 0.0 2.9832492742412433 -9.524504478764177 0.0
283 2 11.035084413257374 15.636814852968442 0.0 -8.067298050418637 -7.327914813574582 0.0
284 2 19.55794768281041 2.381394574231901 0.0 -2.7342230213091683 6.584485934518809 0.0
285 2 4.8503720409256905 9.016869099855107 0.0 1.3549475106566833 -5.838746208955221 0.0
286 2 7.438545867237906 13.847598843109498 0.0 -0.21522488639079895 0.1306714377879976 0.0
287 1 2.456086626273512 7.5589216511597375 0.0 -4.216617926292964 4.060949727578885 0.0
288 1 6.4104950155256 3.711889717696069 0.0 13.384942969538194 11.111844126420014 0.0
289 1 13.74318588836725 16.473957615300233 0.0 0.9873344054982645 -3.6101644560069337 0.0
290 1 0.9841117971956527 13.163262091777844 0.0 15.164550883508255 2.553157278381796 0.0
291 1 7.093608905899362 17.65652165609542 0.0 5.736653246342923 -4.61898893249593 0.0
292 2 3.171675016508156 16.937771643684737 0.0 -4.986175136754132 7.652904918091428 0.0
293 1 12.68500416144625 0.8630697835823642 0.0 0.29180438876280945 -11.607054489071134 0.0
294 1 17.903036005991826 3.55059952038904 0.0 4.98304976574159 -11.433580656818222 0.0
295 1 6.099382841599314 18.460935910096886 0.0 8.290317729458833 6.075444924939624 0.0
296 1 13.997074425581696 17.084519557609056 0.0 12.600291390765685 -15.932251410463213 0.0
297 1 10.27969385843419 10.071795236546155 0.0 -10.301990744989137 -6.205548501652683 0.0
298 1 3.4852821930377456 4.499764981467739 0.0 -2.6464406067089303 0.5230852802207893 0.0
299 2 6.130461125163153 12.330525325684317 0.0 4.808262155329157 -7.753106956382933 0.0
300 2 15.370949511294521 0.4194325052693952 0.0 -13.212675946693928 -0.29935564937253484 0.0
301 2 13.759264678060381 5.600267842588064 0.0 7.907120415398997 -7.673119823042212 0.0
302 2 15.994339302004327 12.766997535562183 0.0 -2.9060393115943173 11.36824690694489 0.0
303 2 7.145018417272357 19.092886624220498 0.0 8.13076533949027 -0.030310174519617507 0.0
304 2 11.552229946794794 0.4348314220855471 0.0 -7.335740956819327 -10.551569241469194 0.0
305 2 0.5047450299119745 1.6344518381437503 0.0 -0.12274951492850435 2.002642484100066 0.0
306 2 1.1160077547488414 15.357083454195319 0.0 0.499780634383126 4.555801933259979 0.0
307 2 2.290323259229432 13.87956644894096 0.0 -8.923989600905925 8.443495305670103 0.0
308 1 8.5713457580945 9.584452867089722 0.0 -3.3162177216546356 11.511783655667537 0.0
309 2 4.2611148036641255 11.224663384301287 0.0 11.25663711082179 1.1146628531177882 0.0
310 1 3.427317956541189 10.761287787627145 0.0 11.661589002884234 -5.8433054399523785 0.0
311 2 1.9527832459155445 0.8388833740065178 0.0 1.218095738349201 -2.0543697289838874 0.0
312 1 16.504813608526252 4.205807635201158 0.0 1.7458505891746643 15.056342640634014 0.0
313 1 0.01791758103467289 5.219870384971923 0.0 14.413624046104657 -0.8153411961218338 0.0
314 2 0.1852954742822502 19.090217599805648 0.0 1.657139511914125 -0.8784149125230462 0.0
315 2 7.199722917578214 3.238615944044876 0.0 14.318544999523253 5.803519899873558 0.0
316 1 8.165498630050353 8.850696331609292 0.0 -3.6386358765030598 4.703396706801363 0.0
317 2 19.642231753098027 6.500501133723565 0.0 1.4654057119625412 6.910808219619339 0.0
318 2 16.544624821417493 0.7302306286206663 0.0 0.7388897071226362 9.448508845153574 0.0
319 1 11.920740398374871 1.512064724180426 0.0 10.459987887703678 -0.405802855396195 0.0
320 2 10.26419852638678 10.980357691467587 0.0 -8.431497256991337 3.0595660231869313 0.0
321 1 8.674206775076835 7.714082383877944 0.0 15.60703119253625 -2.4996758463983904 0.0
322 1 12.713511550271349 13.473610889959556 0.0 -3.8156425029977634 14.401669718397677 0.0
323 1 0.21113452000630525 8.270863842543537 0.0 -2.4198513811924482 9.382782341949282 0.0
324 2 14.059126097451728 4.492106786042258 0.0 -6.467688812618841 -2.2144977794106357 0.0
325 1 13.665164378101254 12.609764723852546 0.0 4.420164683244207 -5.894966260763829 0.0
326 1 14.722001842689224 6.154914538691508 0.0 7.096589962129296 -5.315364322126914 0.0
327 2 19.183911950640006 13.896825118442507 0.0 8.193770054167919 0.21438005386874284 0.0
328 1 3.961057840053884 9.155679468743365 0.0 9.009095261997045 9.13039941771023 0.0
329 1 11.263189652027819 5.0410060232996505 0.0 -3.1828995824222246 5.708543918856007 0.0
330 2 2.0611836044746874 2.4019710259653357 0.0 4.851554656139061 -4.770746336908284 0.0
331 2 19.3496340314532 11.26463910141426 0.0 1.8512561426413994 2.8417469251580267 0.0
332 2 19.0078664175663 12.323225043809513 0.0 4.702910147903427 -4.5735382705154315 0.0
333 1 12.137918780936955 6.982332878519921 0.0 3.4663084449581625 0.3250580214238257 0.0
334 1 18.095758262517197 8.948713349046816 0.0 9.048131907467369 -14.64201098418341 0.0
335 1 8.526072763802802 16.46492901935577 0.0 -9.729199118294913 5.850083707484833 0.0
336 1 0.050443926525129926 3.4715771107513334 0.0 -13.469872563312384 8.386360259840497 0.0