ITEM: TIMESTEP
0
ITEM: NUMBER OF ATOMS
400
ITEM: BOX BOUNDS xy xz yz pp pp pp
0.0 19.7609 0.0
0.0 19.7609 0.0
0.0 10.0 0.0
ITEM: ATOMS id type x y z vx vy vz
1 1 3.117679002097761 14.006019284474243 0.0 15.086260065151082 -11.7819318117878 0.0
2 2 5.989275112530792 2.225749177875734 0.0 -3.786203858656404 4.009437753399498 0.0
3 1 12.095673507859086 3.6897510579590866 0.0 -11.324303042457503 5.511210138031951 0.0
4 1 0.0416240394258358 0.09031557837584918 0.0 9.626913557217032 -5.438673660458935 0.0
5 1 15.05931749019566 2.2279560941096097 0.0 8.486754661526254 -2.1823619202364752 0.0
6 2 13.776039232054792 11.195012935812354 0.0 -6.057536747939674 2.1642501393965445 0.0
7 2 17.121046112311767 6.667331777900493 0.0 1.7716099178786109 -5.759911853061093 0.0
8 1 12.556032320871974 19.70242477109925 0.0 -4.91707108043956 0.7808154178484806 0.0
9 2 10.835427864283213 6.481202190100057 0.0 0.549010801458207 -2.3133126697918827 0.0
10 1 6.149179976470224 11.050194358849058 0.0 19.653135478667558 10.079363381355984 0.0
11 2 0.991263526794113 8.202352733806924 0.0 8.580779453178549 -11.289977825588338 0.0
12 1 10.436129439127505 0.7293236658198079 0.0 5.634619485909163 -3.1308245315435124 0.0
13 2 10.164835258964535 17.556268973474015 0.0 1.275983258349547 3.847460069442272 0.0
14 2 0.25415298996127006 10.091959954036339 0.0 -1.8500684161280225 0.8958842779266026 0.0
15 2 15.437853983907296 10.064903532688804 0.0 -1.925586354561248 -7.723157239695635 0.0
16 1 11.108254640010815 18.3667978331887 0.0 7.443804811056455 14.864228151120518 0.0
17 1 16.606391338775428 5.149195473025062 0.0 6.585311917431998 3.275039475582692 0.0
18 2 3.9444534784803897 6.143316116697722 0.0 4.8830302894517486 -8.153530663419149 0.0
19 1 2.0002184870076167 4.697488708383038 0.0 6.5663462577493 5.262123204347786 0.0
20 1 12.66721476846754 18.3392978281129 0.0 -10.84853578447798 -11.482471768717984 0.0
21 1 16.99131503725731 10.91868549921675 0.0 11.36704266775068 9.213913056818924 0.0
22 2 13.56011115814589 19.134052820623385 0.0 5.799774717199159 0.9314687395189799 0.0
23 1 19.715413907611673 12.823633716766949 0.0 11.573201621517528 0.451961578365804 0.0
24 1 6.173172860680603 13.7833297483252 0.0 1.5125925759380543 0.6158007253818694 0.0
25 1 8.270088494607291 15.976701087232048 0.0 8.894738737122536 -4.163284363585497 0.0
26 1 9.310458194662568 7.293180456032499 0.0 -8.890027374549115 -8.111825560932209 0.0
27 1 15.40005456670743 13.495337805968026 0.0 -11.566767333167268 11.164312968899631 0.0
28 1 17.60238947216588 10.057967039223753 0.0 -1.521074342724006 1.195497401412677 0.0
29 2 0.9885443699489734 3.8839605216804225 0.0 -0.9042335221951513 10.494528805122407 0.0
30 1 1.2260727067818176 17.75424278896285 0.0 1.7468177834128482 13.799408562754675 0.0
31 1 17.07405868508985 17.998256742752712 0.0 -2.9962314850933356 -0.28666642372640755 0.0
32 2 7.413325583359003 11.661501400428731 0.0 -5.430132441712869 1.300649535078725 0.0
33 1 4.650220273759595 3.5937479945563404 0.0 13.832329679945957 9.757201098935434 0.0
34 1 10.823436067706012 9.319590613368593 0.0 -12.296458770111856 -7.3842073956598835 0.0
35 1 3.1370960398845917 0.3391937620216481 0.0 7.949457834691097 10.28180530320436 0.0
36 2 14.55661657509665 12.887130893571836 0.0 -1.6106703807185243 -11.247261584966479 0.0
37 1 18.803895153060594 9.208723645835153 0.0 3.5468990000355096 -1.262219462262828 0.0
38 2 5.155615632247933 11.368917724274802 0.0 9.497617213704972 9.96281657113911 0.0
39 2 8.2231994789782 3.4501788663050976 0.0 11.421104706926096 2.571976790950808 0.0
40 1 16.682212376014245 10.090347874368792 0.0 2.88499895025707 -11.391450855514206 0.0
41 2 9.027992137864612 17.72119351630087 0.0 -2.1560114083147615 -1.5826319242553333 0.0
42 1 16.33573284295121 18.757463490607968 0.0 -10.517348434440663 6.767247736730967 0.0
43 1 6.277703793060727 15.98525881412489 0.0 -12.726581712918234 -5.9172732565168245 0.0
44 2 0.6761908193998728 17.087329636955864 0.0 0.879743367173597 -10.531033492182516 0.0
45 1 15.247754766065755 12.344389202061617 0.0 -3.900675274329086 0.05589530340685412 0.0
46 1 10.53563145175373 19.35396915335843 0.0 -13.828739345781173 16.33300142015089 0.0
47 2 15.28517613982577 4.481172961981718 0.0 4.95353966225564 -10.655730257443281 0.0
48 2 8.900269801621235 18.75565653942698 0.0 -3.6935819086695623 0.7073869467458304 0.0
49 1 14.945290612700912 11.581259573799516 0.0 25.775101850866058 5.598590542076423 0.0
50 2 2.607152943781884 19.108855303422306 0.0 11.350338115236953 -9.242924510851962 0.0
51 1 3.869143383011559 8.977871668725252 0.0 -5.645357936746413 -16.290769896977256 0.0
52 2 15.402564702655999 17.378970229858492 0.0 11.872794117720565 10.50464789551751 0.0
53 2 9.835682089354213 9.66162488940465 0.0 9.36217886175967 -1.3419401181814925 0.0
54 1 15.003073860163665 18.840196922381466 0.0 -7.248121926696 -9.830666706696237 0.0
55 1 13.084439376111742 12.241006868480332 0.0 -0.8972466175754668 3.1781978139275635 0.0
56 1 5.046179697448501 15.883220128097333 0.0 -9.179059535775112 2.422020522301595 0.0
57 1 12.725370823813817 14.20516793768132 0.0 -6.488445398620649 4.429904421984711 0.0
58 2 7.947769201005367 19.247651227150243 0.0 6.848296132703018 2.1049009078823246 0.0
59 2 13.918115813492488 12.236860737225475 0.0 1.3051413507058074 -6.252893795384502 0.0
60 1 14.259058077911515 7.127392680768432 0.0 4.040191473651127 -1.2222977916860338 0.0
61 2 7.820469384523726 18.266260026178255 0.0 0.8577849992074043 -3.5490678423138653 0.0
62 1 19.29183344821664 10.554844604034528 0.0 -0.2227909811752169 5.8900472187989354 0.0
63 1 1.60546108581608 4.929611106546384 0.0 3.131369847084686 -11.236333411260677 0.0
64 2 16.434328898204477 12.631149113607021 0.0 -8.497207152806602 -8.316299360594263 0.0
65 1 13.507746722893007 3.9563105209001903 0.0 -5.465218415649349 -4.600448390635074 0.0
66 2 17.35365057429814 13.714577114366529 0.0 -1.7113216714203783 5.166502670083012 0.0
67 1 14.378454595958663 18.549577389734676 0.0 -5.930876745406638 -3.863291112516634 0.0
68 2 13.172785648105688 16.075663121295193 0.0 0.7085618466639718 -6.900825532696886 0.0
69 2 1.5034077529763044 12.389551957197735 0.0 8.62272826992904 8.9322744449794 0.0
70 1 7.582252052787142 12.781923215180234 0.0 4.746881660985681 -1.6488139523680971 0.0
71 1 9.88161405938386 7.422561257086685 0.0 2.6919218961099816 1.1254478752009387 0.0
72 1 18.856891390833887 3.9678443183518044 0.0 -2.4825426379715987 0.47708375292553173 0.0
73 1 2.60849174996505 12.339042716244709 0.0 6.918176831071106 -1.7440897522668486 0.0
74 1 12.381673006905741 4.914483042419964 0.0 3.5588240979923222 -7.968726222305046 0.0
75 2 6.529304729173872 14.67112404490258 0.0 14.682334804761215 -2.7020574846408527 0.0
76 1 5.0891852148675465 1.3308137715303103 0.0 6.038968158711553 13.1582906918583 0.0
77 1 12.675976446996533 19.25024444649685 0.0 -4.603931058698881 -5.948242722816678 0.0
78 2 6.755768235349715 0.6815964463999444 0.0 0.2872881282641365 -9.414472390308946 0.0
79 1 16.383628283844537 2.3198724655218377 0.0 -6.780188100383289 10.170905824697444 0.0
80 2 12.298234148219331 7.221555926440239 0.0 -10.765441248692527 17.859960192353867 0.0
81 1 16.168405567853892 15.154419871837426 0.0 1.6449097489696893 -8.061422418519852 0.0
82 2 3.5611827115874926 3.0636509288671743 0.0 3.4837783537757754 10.192179225327868 0.0
83 1 16.566842674335774 15.829124869712274 0.0 10.619916864704289 7.831735281211453 0.0
84 2 9.982354989377246 6.403225429937028 0.0 -6.883396434961633 -2.026915833257495 0.0
85 1 14.651536496274533 16.674213737286816 0.0 -12.744297857358553 6.779641374228631 0.0
86 1 18.28149635281421 10.232157372457166 0.0 -12.472144265496896 7.837385948907662 0.0
87 1 8.173040533036959 12.227106425653174 0.0 20.972703784955186 -4.480470898415314 0.0
88 2 1.0454983416789914 9.521257309710661 0.0 3.8780249695713778 -3.530239672988738 0.0
89 1 10.945897496080061 7.637801159934024 0.0 -23.716278735075083 -6.853780160770603 0.0
90 2 8.560839371118522 7.244433066466502 0.0 7.892726642698692 6.702650412197009 0.0
91 2 6.988521560396792 7.987114000931985 0.0 2.7031477104293344 7.9856367832366715 0.0
92 1 0.7342294602379446 18.40443394201602 0.0 0.6736463124703147 -1.5360796918612778 0.0
93 1 5.412320377835803 3.398619880418964 0.0 -0.6818578822630127 10.019766353625796 0.0
94 1 7.159873131296273 10.374795264442435 0.0 6.688166949720553 -12.939353196016441 0.0
95 2 10.717933173171343 8.66101874871594 0.0 -4.458384202322054 -2.15345713963833 0.0
96 2 4.595979910631045 7.331445146079301 0.0 -7.762479245449821 4.223756131666787 0.0
97 1 10.678758494093886 18.852252274141367 0.0 1.7322512649155433 4.666560252667284 0.0
98 2 6.400580183846795 8.738916946951045 0.0 0.6168763772924754 2.3865895252944207 0.0
99 1 11.952310797178072 2.377553635101643 0.0 -0.9735848067237325 8.864445443907332 0.0
100 1 18.10031067584116 10.82808390482616 0.0 7.0242283642663725 2.1088277526087116 0.0
101 1 19.665158342148203 1.9683710941823447 0.0 0.7547274085809808 6.502423648631183 0.0
102 1 18.15873791464714 0.8720412472581917 0.0 4.9084436497078805 -5.445985521347199 0.0
103 1 7.620461521368759 6.664214509556807 0.0 -0.18892532790780156 -6.6621126430073 0.0
104 2 15.015766808553275 9.130574412494727 0.0 9.46990846220681 10.109400164525212 0.0
105 1 5.079750333287303 13.235964967072398 0.0 -5.306452853906697 14.366031130972411 0.0
106 1 9.832105488018435 19.684279695644587 0.0 -3.2617354070740756 0.8991716470273845 0.0
107 1 7.226190808727104 3.9543886351653326 0.0 -8.543282348612586 -9.117728541708397 0.0
108 2 15.949496145037566 2.921057633588766 0.0 -2.404576795904997 -10.152818773289756 0.0
109 1 14.10026175437313 4.201956336029194 0.0 -7.358583892469063 -5.877164091216535 0.0
110 2 13.006453373318141 2.0821146212750388 0.0 -1.9232058136124286 8.07537411665595 0.0
111 1 4.517390286603989 8.402390016788427 0.0 -6.3658532897645825 -2.703760455923843 0.0
112 1 13.113468477200277 4.372280323331829 0.0 -7.882204758168343 2.752158645664468 0.0
113 1 11.169930454566327 11.93955365932325 0.0 -11.694904781765684 -1.1984050937950779 0.0
114 1 12.068867215092753 5.8609498143941625 0.0 3.070760738528818 -10.512688064527943 0.0
115 1 5.599207176301477 0.9809299019190549 0.0 18.422437362182855 -9.021442522359388 0.0
116 2 11.978135327644507 10.645943929804496 0.0 7.29073604463988 7.779401717990746 0.0
117 2 6.713183120814981 6.390558750610237 0.0 -5.648317506528774 7.853402106483555 0.0
118 1 1.8081911213978883 1.6913748393044499 0.0 19.131882267905933 2.847447411023183 0.0
119 1 18.337741776133832 12.011741440401446 0.0 5.159039631810678 15.26870521862898 0.0
120 2 8.181576207643802 10.487950188217539 0.0 4.349243642573228 2.90488988147327 0.0
121 2 10.110975416053716 2.190323680293847 0.0 4.434320723187525 7.032610897575151 0.0
122 1 14.479255742636132 10.812429484837681 0.0 11.021464682077955 -8.239832621095916 0.0
123 2 18.37068996703393 2.114839548961492 0.0 -6.153783228052934 7.9123580040107715 0.0
124 2 16.065924271554728 0.6450411580731257 0.0 -1.9263411405854087 12.452727623006874 0.0
125 2 11.976467355816963 8.205402123776473 0.0 2.3003751828232235 1.969315865916505 0.0
126 2 12.668243572742979 15.170824647166356 0.0 -3.8608097631596867 -0.3995567740019142 0.0
127 2 1.6164282181326204 13.372861051926526 0.0 3.50268937761148 -2.862431063460569 0.0
128 2 18.24480413370052 6.086488218819149 0.0 8.449990811925343 2.926314000916855 0.0
129 2 8.910557207771397 11.698362862600671 0.0 -4.673532924714771 4.0631546703824055 0.0
130 1 18.27158907154931 17.877090165050138 0.0 -5.3383575921944315 1.4517927512643924 0.0
131 1 10.237711726554062 11.609186162831403 0.0 -1.0662223665762305 -0.4576209773785198 0.0
132 1 10.4781789136447 10.778827577922897 0.0 -2.9976450905812446 2.551794233305113 0.0
133 2 0.21863006798772083 0.9128360294512983 0.0 11.926595625972745 1.496960414658062 0.0
134 2 4.111915939001766 0.8694248528858758 0.0 -3.102668411658484 5.8880196858026945 0.0
135 2 1.5317761696513934 2.7379220258273946 0.0 9.13952911713518 -2.5336394011023162 0.0
136 1 19.67848727466694 14.968980874904956 0.0 2.2822599725988733 11.103372212043663 0.0
137 2 4.89371744556336 19.18470505634002 0.0 -6.589783373276323 -14.000605992872948 0.0
138 1 18.199609550634108 9.469998424847475 0.0 -6.321990061990472 -5.479213968143022 0.0
139 1 8.123162068491911 7.9454241179178675 0.0 -13.959210203268182 18.06450253674834 0.0
140 2 12.182081453143125 12.121410406898367 0.0 2.4444264551616537 -8.11885011150553 0.0
141 2 11.902111680054656 13.09079543335148 0.0 -11.640426138952147 -6.5436571485348995 0.0
142 2 18.332130044085357 13.972279580414813 0.0 -1.1198032022146545 1.129184369238627 0.0
143 1 15.5156600944698 18.915828501047624 0.0 0.6207720856142543 12.448920674242896 0.0
144 1 11.372648330608113 11.02988438639137 0.0 -3.4741972757297552 4.000910438510474 0.0
145 1 9.681457376096732 18.56037285144511 0.0 0.44168411104369637 5.547817749882712 0.0
146 2 1.6190277653620533 8.812153313464608 0.0 6.580385099518967 12.121342555606692 0.0
147 2 18.489990138569794 15.5928858858364 0.0 -1.52348192241156 -9.604925137085678 0.0
148 2 13.641860334498965 14.55997964376243 0.0 -0.9798479957897166 4.431887451003407 0.0
149 2 2.8331293107038666 8.816993411492597 0.0 -11.977987523757864 2.82407213156097 0.0
150 2 2.7882287695760617 10.624421300170138 0.0 3.63344189723872 4.811932836512531 0.0
151 2 19.23785611664263 13.817907042924995 0.0 -1.8560984216893932 -3.075991323791686 0.0
152 1 7.0049278044519285 18.947067235396137 0.0 -1.0895239370932956 3.8289896162093924 0.0
153 2 11.41797413465672 5.3661128348249525 0.0 -1.6638052685611933 -7.486025711790232 0.0
154 2 13.206460034408137 7.602556757954856 0.0 3.1279908391051916 2.009835062424663 0.0
155 1 18.010076873880205 3.823606574353875 0.0 -2.9416810342428077 -14.443606686049968 0.0
156 1 5.426107052369494 9.424198949015636 0.0 -1.8233883063761693 -18.58708171432667 0.0
157 2 12.943755821580526 8.435358014739633 0.0 4.340641368976997 -3.178957215518081 0.0
158 2 19.317973374845813 5.46541909709896 0.0 -18.671962892633335 -3.8064340007510964 0.0
159 1 5.063285328907823 3.893359060006552 0.0 7.043824234395835 -9.171875773616348 0.0
160 1 2.4828473378194387 13.63684879728171 0.0 7.6843754949148915 -8.489301767024878 0.0
161 2 0.7854221228359266 5.466574808502089 0.0 -1.1295967206888047 -6.777578780023942 0.0
162 1 14.431756846922479 1.2930051998913779 0.0 3.3173681630174023 6.05541700274701 0.0
163 2 8.911997919611206 13.50339188341585 0.0 2.9441627827288577 1.5251388521356983 0.0
164 1 4.171726663947537 10.823917883549653 0.0 1.7035917500816715 9.616603144159228 0.0
165 2 16.35687061211492 8.179597131414086 0.0 -5.115755821885614 -5.652413714695333 0.0
166 1 18.919784970239466 18.478870649087003 0.0 12.489207512844906 3.400395833294482 0.0
167 2 15.220624294019009 3.5538646758311767 0.0 -3.7347048616602474 3.727992391211887 0.0
168 1 15.953911306125848 7.3845384234769105 0.0 -0.2329620586014686 -9.729162602116503 0.0
169 1 12.662255633528046 2.99332822863962 0.0 -2.4832606409887417 10.837937191266558 0.0
170 1 3.433826509836851 5.252395266882381 0.0 0.4037325783307678 -2.058819698859746 0.0
171 1 13.618023780410624 8.831984719785055 0.0 -7.798231559097774 3.2896194297162697 0.0
172 1 4.777752753064988 14.195367224230333 0.0 -9.307273769396762 -7.206272445462552 0.0
173 2 7.476485405748986 15.430984469770397 0.0 5.111584846957697 -4.861448572185178 0.0
174 1 9.73958478509196 8.68574157887236 0.0 3.8245475695958837 -0.3961941522834585 0.0
175 2 2.839361703638003 7.911892875320772 0.0 4.900081408097343 -0.6198206408777472 0.0
176 2 6.559466457946405 18.39108226147778 0.0 3.7860454905623633 4.993996427358701 0.0
177 1 6.380922843303914 11.981661442434563 0.0 8.258847018816882 -4.37013524700853 0.0
178 1 10.299284566937981 3.6897943448989574 0.0 1.8511618908847276 -4.517729911577041 0.0
179 2 2.8153545986910977 5.934054514966393 0.0 -6.3351850338364715 0.10009124989288878 0.0
180 2 15.383615644670513 1.5441931527837387 0.0 -6.143415137818926 1.6063002308547771 0.0
181 1 7.249651456345058 14.23222947569065 0.0 -2.9629545845576715 0.6026653852640003 0.0
182 2 4.848413671096682 16.634560453866424 0.0 -5.489058400429241 -2.159382251357409 0.0
183 1 10.107813388231783 1.0258784091806263 0.0 4.715067554191359 1.3209527307213182 0.0
184 1 12.391428795288089 0.4039189993117808 0.0 9.504841713217523 -2.858565681116447 0.0
185 1 10.17474846806715 18.967526772260218 0.0 10.681883647160213 -2.8535310972169743 0.0
186 1 2.8440565583873223 14.7337037078234 0.0 -0.37977549388997284 -14.851756741606188 0.0
187 1 0.10218176244592504 9.343120444308767 0.0 -11.824105012521356 -7.178220379917244 0.0
188 1 19.380876968361694 16.88538035001602 0.0 5.42238569226798 -19.632879321155897 0.0
189 2 14.258691463892514 17.54041684582065 0.0 -2.6113260636778532 8.065037893339118 0.0
190 1 13.690036310982114 13.84796303977701 0.0 -8.90118601769733 9.045026288798997 0.0
191 2 13.53561855638565 10.336527318778558 0.0 -7.72129946590573 7.517457544136103 0.0
192 2 3.305593440107853 9.789254906374302 0.0 1.2886117138024162 16.1146077024679 0.0
193 1 18.321603841211463 8.187647746825466 0.0 -13.257212671414546 2.647619880605349 0.0
194 1 13.31109027947763 18.463082799593465 0.0 -0.7593913942206774 0.11811663203117048 0.0
195 2 17.348476419185957 12.631530438289788 0.0 1.0034689184242287 -6.542918824873549 0.0
196 1 1.023167657890551 18.83409540528081 0.0 2.903232855239686 1.2001263911917774 0.0
197 1 5.784176023271354 6.869955679646911 0.0 -7.103346657889175 -13.591192211232931 0.0
198 2 17.637848531455912 4.461062556572338 0.0 -3.1271858755904343 9.573266924823946 0.0
199 2 17.58835523690987 8.46695907055836 0.0 -10.781264419045035 -2.0175495390793055 0.0
200 1 6.262938159801323 3.360968688507892 0.0 -2.8732939800261086 3.7594137992377914 0.0
201 2 16.55832784774486 17.320195945219503 0.0 -4.176320453543577 -0.8239584853620957 0.0
202 2 7.8189035388826715 1.0559095496321138 0.0 0.12483475884860455 7.781705676588463 0.0
203 2 8.562964509124864 14.774925432466553 0.0 -11.54649890821522 8.40183064780741 0.0
204 1 15.641115319465957 6.012760816954322 0.0 -2.448325133549707 0.6502726294732691 0.0
205 2 5.6381723398410974 15.089180794639438 0.0 2.6246055836010105 8.208239590735989 0.0
206 1 2.216219858530505 6.684637744253696 0.0 5.678038652232429 5.9949421310183135 0.0
207 1 6.8034348686149775 19.641346788680075 0.0 -3.6119384365635714 -12.530159685544271 0.0
208 2 11.846558131176195 16.18657061299225 0.0 4.860467421977586 -1.293234203906284 0.0
209 1 16.765871435985307 9.06991581761688 0.0 -3.9192078770528442 -2.062966957523102 0.0
210 1 11.88653507573292 0.23578769649596695 0.0 14.534370879238079 10.247242212219433 0.0
211 1 2.6154685324493228 13.230962044901869 0.0 -10.057839795393816 14.330323723669279 0.0
212 1 17.734551433787363 15.39333164283672 0.0 4.192742857526859 15.366636288221443 0.0
213 2 13.833737333322842 5.617333732134766 0.0 2.1630650784977803 5.35061333875241 0.0
214 1 1.669115605479635 17.162545367165112 0.0 3.6782805745436256 -5.534851109764726 0.0
215 1 13.041851283540007 18.009129005169548 0.0 -16.019721219438825 2.4164580789249364 0.0
216 1 13.78928993655123 3.2273018463743273 0.0 8.756687019824033 -11.171413671575083 0.0
217 1 11.233033127434428 7.194497913554165 0.0 10.084870567044824 -9.047290288051013 0.0
218 1 0.576739606571059 14.26718858047736 0.0 8.908050131103051 6.4477328862829415 0.0
219 1 3.0435502780079724 12.704758066343642 0.0 1.8142184821786185 -5.13338500177477 0.0
220 1 12.151080397630604 1.788808612314325 0.0 11.147861344895311 -2.518803243921464 0.0
221 2 8.09464746612028 9.698457448064424 0.0 0.8744773988003337 0.6568736338278194 0.0
222 2 8.772554620050656 9.099886282485908 0.0 6.536316816474941 8.851112356878831 0.0
223 1 13.982345554159608 2.07540829318413 0.0 -4.294767531443866 7.6266853608945775 0.0
224 1 17.15766107368113 2.2602595521313202 0.0 2.146918926957903 4.3596020968314395 0.0
225 1 16.376061244119022 6.922483197175991 0.0 -13.579984606842144 4.374655631706704 0.0
226 1 1.4521959499894426 15.392232148999653 0.0 -1.384495885456958 29.042530215930135 0.0
227 1 14.292894513024834 14.85670946760597 0.0 -1.0771159390710756 -13.290265106675133 0.0
228 1 3.6929595998410067 14.012149416347796 0.0 11.283329201785614 -5.656662562282396 0.0
229 2 5.761839298042139 18.852620676910433 0.0 1.7377546205528467 1.8853018723792203 0.0
230 1 4.185506383530676 15.086716778851512 0.0 8.535670498623013 9.100973184690824 0.0
231 1 19.430852979088257 8.926958841122127 0.0 4.463592283324586 6.747067503999864 0.0
232 2 3.1980067719366527 18.183139840938768 0.0 5.301459891850403 7.4465763514711725 0.0
233 2 10.10669751253223 5.511964997864495 0.0 1.4252981262750133 -5.180673928073166 0.0
234 1 17.496520551029842 0.03405954783434051 0.0 -18.208041134270363 -12.049512820621135 0.0
235 1 14.663012229620112 6.87671484407981 0.0 -1.1207335359896398 2.45475645580003 0.0
236 1 5.081538876478949 8.493066947824108 0.0 -7.418427674191027 0.3500766167749112 0.0
237 2 9.383030622725222 0.8251380145252084 0.0 -1.6186835473253756 13.499544318759053 0.0
238 2 11.206234388323422 2.0200288087046143 0.0 7.391280910784364 6.216334806331349 0.0
239 1 18.685828959745802 12.90874860462536 0.0 25.45063577882029 -11.530976143755089 0.0
240 1 18.517414642872914 11.001118646321823 0.0 4.32113659615368 -23.370737430954737 0.0
241 1 16.17283610154928 3.806097201741112 0.0 -10.261491111923453 -0.6912644609143993 0.0
242 2 4.155769241020162 19.65987401001491 0.0 -10.989826185591598 -3.5563211626808324 0.0
243 1 10.44920092070628 12.173284895161986 0.0 3.7327157426976845 9.372576105297076 0.0
244 2 1.7835152911654275 10.582558794803168 0.0 -3.3165125722555477 -2.1445901388463 0.0
245 2 19.25810637310646 7.984667622470801 0.0 -5.643808920075191 7.251873314614837 0.0
246 2 2.051260495741898 18.064814420781758 0.0 6.062348669277709 -8.389684394957927 0.0
247 1 9.511410325901071 7.961372414764106 0.0 -3.930725691809834 4.658912005941381 0.0
248 2 3.987086636000488 17.1551318308647 0.0 -5.581296171285365 2.48605437420987 0.0
249 2 19.640589777882056 17.722334873394068 0.0 -9.788199167825411 -9.710826556995967 0.0
250 2 0.21332705654456674 6.425850399253741 0.0 -7.375896399523178 1.2102990048537343 0.0
251 1 11.318573944848586 19.231125509205707 0.0 -8.358204902081416 6.819412296849507 0.0
252 2 9.362509351111758 3.7122714627827302 0.0 0.9603435383919375 -0.03944668548403842 0.0
253 1 12.101481929526043 19.017453845649733 0.0 11.330037058538977 4.413414239410792 0.0
254 1 14.96252999675271 7.273912188594049 0.0 7.606235850404758 -10.460364438871249 0.0
255 1 18.988797589325628 2.57516443037137 0.0 -12.915795591626631 -0.6413702706067343 0.0
256 2 10.443532652964397 12.972945871661643 0.0 1.1389501646859068 8.133545306885011 0.0
257 1 15.19030515096274 6.793013199077608 0.0 -5.146779122620614 -9.159525806251343 0.0
258 2 3.3234433805144232 11.557521370922915 0.0 -23.523173170583423 3.7282377405936264 0.0
259 2 11.366799901673142 3.0329443656593043 0.0 2.7965453542505987 2.290279384163239 0.0
260 2 11.302660224298277 1.164362335631351 0.0 -2.774237981341096 -9.013133577416225 0.0
261 2 17.144167836538415 11.653741637800936 0.0 -0.9562954315133511 6.28016358970999 0.0
262 1 10.38357587960268 7.679924655078219 0.0 -6.678610741208993 11.48693699284423 0.0
263 2 16.87713271666155 14.662416623699253 0.0 -6.098083598850831 0.09224136441089993 0.0
264 2 9.089622522488186 5.939677082298651 0.0 1.8603269528578745 2.8926550371120205 0.0
265 1 3.0182925331106443 2.3387435311853104 0.0 -20.975402233829744 -1.7802026912492128 0.0
266 2 13.673617555670939 6.659007762866818 0.0 -5.128940884325756 -4.127045008530701 0.0
267 2 4.999346440986936 2.154237716325564 0.0 -2.0580773433262984 2.5894307437742756 0.0
268 1 17.468121455534103 15.902577507455648 0.0 3.1924560365996335 2.828119034462433 0.0
269 2 4.441519117489932 9.921955479048023 0.0 -5.152574072812942 -0.5086706279528707 0.0
270 2 11.807687642003245 15.155221483410012 0.0 -1.149617073833516 8.671779541078275 0.0
271 2 5.479416699371038 0.14250778196969194 0.0 6.1667011532778195 6.499775752777883 0.0
272 1 1.0017525700160725 4.680642465401297 0.0 7.930496732021966 -9.282856241517726 0.0
273 2 8.924041337860604 16.436277015625407 0.0 9.045656062445612 -13.74890627722487 0.0
274 2 7.160060179444716 9.5743581008643 0.0 1.4638227409586722 -3.4584726234738565 0.0
275 1 16.27026719104665 19.343614456978198 0.0 4.2400774329913995 5.18742281624686 0.0
276 1 15.465631382462544 8.246953762457824 0.0 3.510932889638039 0.46604488858923887 0.0
277 1 5.399909587046623 12.314838925970237 0.0 -5.81792882303474 -24.0606103580998 0.0
278 2 4.976674061613089 18.08707119070716 0.0 -1.109992093074029 -6.331420029267423 0.0
279 1 1.0120752557209312 6.45432463716183 0.0 2.802840398277455 22.27569232336122 0.0
280 2 9.59019935446933 15.451354758127101 0.0 7.163905962439326 -3.958290991520692 0.0
281 2 11.932474198322588 9.328928708507638 0.0 2.938594316388757 -7.165785509983026 0.0
282 1 2.0851961578188822 3.292361787312158 0.0 -4.4807381698708575 -9.880521661828492 0.0
283 2 10.55333033949946 4.758147802337473 0.0 3.19100225455851 -1.0290203903180288 0.0
284 2 10.601216917783118 14.931497907022214 0.0 10.576759400773636 8.441954427600852 0.0
285 2 7.320168419332539 17.561355907851475 0.0 -0.6783325292948699 9.435859110641548 0.0
286 2 0.009171752722769577 4.401943298596187 0.0 4.748777512424078 2.1178091656680347 0.0
287 1 10.800002950523957 11.385088637846042 0.0 9.61195859461536 3.0530688287506798 0.0
288 1 8.023545457813364 4.914144482267853 0.0 5.883215416371991 0.33772286044919625 0.0
289 1 15.749397901594662 15.313002887151203 0.0 0.4439506743634476 11.592276169470022 0.0
290 1 5.676739924214503 17.315958294764823 0.0 1.4444025862558032 -12.854118471150189 0.0
291 1 15.752028823831827 14.800516311741278 0.0 -1.5217943768476283 2.872267231417539 0.0
292 2 10.743543250218481 15.800908441664516 0.0 2.351297825904886 -6.354560299140324 0.0
293 1 14.51480554519524 10.04637551248265 0.0 -12.911725603952286 -16.742552198244304 0.0
294 1 18.749517421308443 10.64526203477359 0.0 -13.763246270766297 -9.569394219907835 0.0
295 1 14.213667399324082 16.458420010158296 0.0 16.915323834398283 -11.296447208884997 0.0
296 1 8.606627995812799 4.173033350994135 0.0 5.198539704295412 -10.145378380197887 0.0
297 1 0.6515483027317317 19.661390912947777 0.0 -1.1558481657541075 -0.5455913799182778 0.0
298 1 19.137549379027615 9.867594126430372 0.0 -1.335519280739901 -19.62260363860711 0.0
299 2 3.9317143216210604 13.196965386903516 0.0 1.7570641789037882 -5.77224643020739 0.0
300 2 9.63865144916352 14.552440543793821 0.0 -4.407372856465002 -17.46584666909423 0.0
301 2 0.7210553510107548 11.238854582426391 0.0 0.4821535288094837 -3.8334144644825994 0.0
302 2 14.625924832255885 15.63473322556015 0.0 -1.6605023523602698 1.7610789065950978 0.0
303 2 5.387882129794565 10.38108420937816 0.0 6.953339718303412 -0.2634822921992297 0.0
304 2 8.051302660433072 14.04942928881692 0.0 -9.134083877655561 2.9531992705793497 0.0
305 2 3.4682086864398136 7.161580613425939 0.0 -4.939315027304579 -2.1954391035299947 0.0
306 2 15.39968010115072 19.707507757686116 0.0 1.7201620835443483 0.21100567285023075 0.0
307 2 11.733074017867377 14.262905861902205 0.0 6.596457129410692 -6.942184401492984 0.0
308 1 18.19703408390822 18.478259754763364 0.0 -5.953749313644686 -10.928245570520348 0.0
309 2 10.90141939312011 16.614076449455766 0.0 -2.9500905490563407 6.158774399638817 0.0
310 1 11.894899199230409 18.269274781971966 0.0 -0.6963721674795293 -4.109856459012598 0.0
311 2 5.585458387001671 7.696196357779451 0.0 -14.642021698712288 2.9416899855777783 0.0
312 1 0.5198343955900611 2.027470145788938 0.0 5.478583963951097 -0.5483902817735263 0.0
313 1 2.0535451091888777 5.918134290459923 0.0 -5.127621908958885 3.521587776859914 0.0
314 2 2.1070845093440735 11.516260511428829 0.0 -4.23981028394652 1.4956201798498943 0.0
315 2 0.6063079055512876 13.518933996924316 0.0 4.249856207359049 11.367342316780457 0.0
316 1 8.255017178206229 5.6242994709275 0.0 1.1369735197696753 14.037035573653721 0.0
317 2 2.8873918980903928 4.694196273524151 0.0 5.054372845729363 -1.1490515839897324 0.0
318 2 10.07862792277811 16.384010954508945 0.0 -5.564241046813173 1.866511481542623 0.0
319 1 0.03107586306676489 2.503309285537915 0.0 -2.0548206542381435 4.012403128295578 0.0
320 2 1.251457809646847 0.9676500079027208 0.0 5.081273734838998 -2.191070583216203 0.0
321 1 14.030742062543368 8.008196703387505 0.0 -7.889810295572637 -2.30013211517368 0.0
322 1 6.691407649637747 4.00713456181708 0.0 -9.158850002236461 -6.477102356085252 0.0
323 1 0.0562038503972629 3.121747003925303 0.0 -17.870045258997163 -11.479736963766419 0.0
324 2 3.767650168585943 16.01310091066771 0.0 4.325007383315215 10.28604974328372 0.0
325 1 5.948956459444866 12.811071750392479 0.0 0.38348255779356283 -6.259379475172331 0.0
326 1 5.015034955069346 5.830761494444418 0.0 -0.510444368707065 4.84187528475344 0.0
327 2 18.57289544866689 17.12625463610344 0.0 -18.557173187095803 -13.58193397613734 0.0
328 1 7.259110231535693 16.68139424863872 0.0 4.653327395270069 -6.89328251100863 0.0
329 1 15.527855691241456 18.39192941868467 0.0 17.45130875233742 9.782918276894586 0.0
330 2 16.80167308242758 4.3738350166673206 0.0 -5.400339910655643 8.000845576090546 0.0
331 2 2.764024700436178 16.786241326991057 0.0 6.765551485895921 -2.519903949982106 0.0
332 2 2.3804979599787774 9.706443666503645 0.0 5.443923762064292 5.724553640827554 0.0
333 1 17.922704245839046 7.0040079726516895 0.0 3.153833664134415 -9.206177262248787 0.0
334 1 8.261766642845876 6.330633788569458 0.0 1.015606500769843 -2.1799758095183384 0.0
335 1 7.049705284389102 12.949757992456279 0.0 -14.714796996944518 11.977520728603205 0.0
336 1 16.192220030093413 6.397038391967906 0.0 0.2786622443002773 -11.529977101837147 0.0
337 2 15.376825726229836 16.255280785742748 0.0 7.888298197526448 -1.933903687909633 0.0