ITEM: TIMESTEP
0
ITEM: NUMBER OF ATOMS
400
ITEM: BOX BOUNDS xy xz yz pp pp pp
0.0 19.7609 0.0
0.0 19.7609 0.0
0.0 10.0 0.0
ITEM: ATOMS id type x y z vx vy vz
1 1 8.804075636843386 12.680794646173464 0.0 -4.613000022419805 -1.433431379506281 0.0
2 2 15.462345097072507 19.39157001695888 0.0 9.287134161872048 -7.021587982361008 0.0
3 1 7.435940143908229 16.0824746522737 0.0 -16.422502568380185 -13.070066467293005 0.0
4 1 1.8520064366514588 17.019450227754128 0.0 2.2870853671706675 4.806166126572511 0.0
5 1 0.1910821541476076 15.685825366161815 0.0 12.4149181270147 -1.4457149118172508 0.0
6 2 18.426268363368806 12.481752477341853 0.0 1.6463284688506419 -3.7722362086800794 0.0
7 2 4.020865089975672 19.048849213886072 0.0 -1.9511836209561595 4.2199147615284875 0.0
8 1 19.016230187791024 19.345132957416972 0.0 -5.603799580602701 -5.644406882426313 0.0
9 2 14.612095839456313 15.682650603515237 0.0 -0.5662069542712762 0.548589746034054 0.0
10 1 5.881077666143967 3.7230152007689785 0.0 -1.32195732248659 14.090660111558043 0.0
11 2 5.524656075100731 18.793826534483237 0.0 -5.510136281552839 -3.408717395129309 0.0
12 1 10.724957940956589 18.654117143858606 0.0 8.849721411865314 -10.07414487006413 0.0
13 2 11.851110123892273 0.01944630394135246 0.0 2.056014062151908 -7.929462764795281 0.0
14 2 19.541515428922548 17.884536051458426 0.0 14.308341147484445 -3.8025569758433346 0.0
15 2 3.8533247575413028 5.689456824746883 0.0 -7.250142615525662 2.8999502752569537 0.0
16 1 1.4630183090907696 7.300856914695889 0.0 -5.108261590649572 7.876742378105497 0.0
17 1 6.890942204194116 7.7499427836430845 0.0 -0.5991599125464846 13.619619914151086 0.0
18 2 10.661358620037952 8.410213178462811 0.0 8.621698457341507 -2.8202137566001793 0.0
19 1 12.655753462121016 4.666798640723341 0.0 22.778552529574046 -10.874712928839559 0.0
20 1 8.334011680106771 17.25452362051908 0.0 9.65346646872764 17.13870103964847 0.0
21 1 9.319398517309232 16.654353285976814 0.0 7.044598843949594 -0.5288008668918585 0.0
22 2 3.89068134202598 9.098495641273674 0.0 13.122424752130025 6.818321812293404 0.0
23 1 4.052082477831449 16.060403365965076 0.0 21.357681019446073 -20.20514129249974 0.0
24 1 17.997583279993382 15.90573071488888 0.0 0.5879101435005402 -3.710430661508914 0.0
25 1 15.122523369252338 13.804214474965473 0.0 -8.883112784073948 -9.972785207390903 0.0
26 1 3.532803697130172 12.439751561462234 0.0 -1.2872846999440202 -11.310506818225312 0.0
27 1 8.237194703299465 13.64779061042256 0.0 5.775331461078319 4.8210440444042115 0.0
28 1 5.459779376772293 15.850712723256583 0.0 14.07313834889306 -5.285304655563249 0.0
29 2 15.21443864418665 6.517371772862495 0.0 9.958384974806687 -9.195037343140275 0.0
30 1 10.94911996532939 19.127459143961104 0.0 -3.0138526051180556 1.2052129737410118 0.0
31 1 4.545231733145432 2.442826872403642 0.0 3.220707671061379 -5.595515536546377 0.0
32 2 16.553291343484762 4.878069089309808 0.0 -6.243455613339369 7.780828458481462 0.0
33 1 6.8330535247925415 8.226036019045882 0.0 10.879529916101815 -9.894148876248813 0.0
34 1 3.8869395592634377 3.5533082683635016 0.0 -6.22564600022981 -4.503045435718308 0.0
35 1 13.17230029173765 0.6575892495814631 0.0 -2.493019358378268 1.8412777939135834 0.0
36 2 13.35870708157413 4.999101512402858 0.0 0.2246610450932085 -6.608056006609525 0.0
37 1 0.037677188743221506 10.483051036660752 0.0 11.191389210742006 5.329761702580654 0.0
38 2 14.9531426988573 5.307378483985568 0.0 -11.303982499687018 4.6653535070075085 0.0
39 2 5.785208322190552 17.957799511281735 0.0 11.125819904973321 6.068780921966538 0.0
40 1 10.026834420505352 17.90489457900351 0.0 3.012521944192782 2.944494052853634 0.0
41 2 2.204592575968034 3.771750754953235 0.0 5.033923987797093 -2.0247806543195837 0.0
42 1 14.70684832969671 19.119203495724413 0.0 8.564608579680227 -3.3306204293769808 0.0
43 1 17.930532333879988 16.405070767869457 0.0 -9.07768916920338 6.257967108430564 0.0
44 2 18.56778512333921 0.36465246388776346 0.0 -2.327588353663885 8.54323661351512 0.0
45 1 8.280750654188699 11.44304100337905 0.0 3.142729790080884 4.831259578800061 0.0
46 1 18.7876273597942 11.482706513050257 0.0 -2.4504028351402503 -2.0266540557461084 0.0
47 2 10.518036977063039 0.062365003140374874 0.0 5.80540709321502 10.028534692360207 0.0
48 2 17.75246947900512 13.260904451853767 0.0 -4.650149515475351 -11.21691076085964 0.0
49 1 9.496016787635662 3.277523677723352 0.0 2.889717774106846 14.29098119454948 0.0
50 2 9.822768205399681 7.782307418871866 0.0 6.383526556487682 8.97240762588541 0.0
51 1 7.886458764083527 7.573817644254978 0.0 -8.910527493496794 -13.69101708154837 0.0
52 2 3.8324312157947604 10.259335782813963 0.0 -7.196561071369633 -0.590548954173181 0.0
53 2 14.62197207299662 16.690156477247392 0.0 -0.8100754236455897 -2.1044566594197014 0.0
54 1 17.819785963963216 11.161745785233403 0.0 -2.0730714968393986 -10.545038609697778 0.0
55 1 9.805229602884635 15.900542821150145 0.0 10.527821506520759 4.915471107625174 0.0
56 1 12.174914993299515 5.047017786200259 0.0 -11.468867988297227 -11.414466033516815 0.0
57 1 9.036040435463365 1.046061285644167 0.0 -13.553822310367217 5.459735634753578 0.0
58 2 2.89238723768032 16.76583914217163 0.0 3.6468172945722395 7.336468331704477 0.0
59 2 11.506009622841006 15.234299158519018 0.0 -7.531845766123789 -0.7521375305240035 0.0
60 1 2.4227769899631717 2.895004701483201 0.0 8.671659463600875 8.886899825832527 0.0
61 2 10.025844430135566 5.1724054179791965 0.0 -0.7419365323319649 -10.617543386974996 0.0
62 1 2.971662040257232 10.175946329010893 0.0 0.7221660900214756 4.260796025371931 0.0
63 1 10.989027278641405 4.982625443597357 0.0 7.487844537610994 -12.015916378330676 0.0
64 2 10.49458384600397 3.095280380299761 0.0 -0.613798842976907 4.321377788082017 0.0
65 1 11.222384049284562 10.450066964016388 0.0 -11.437751458482317 -3.8734173452772924 0.0
66 2 17.27615767254017 2.3349449127454918 0.0 -3.4755985251394153 2.591902961897614 0.0
67 1 14.55783163939869 14.001469449610351 0.0 -2.4005132158261913 1.2042489367288056 0.0
68 2 8.686060360624483 15.422045149674833 0.0 -2.716422131874915 4.199495967718921 0.0
69 2 7.351859600467289 10.059700535906394 0.0 2.021068547759915 1.6234182471646295 0.0
70 1 16.082475713319653 11.538197516953383 0.0 4.787356367459259 -5.361710063657163 0.0
71 1 4.355582539922551 11.034999759117719 0.0 6.064583943928391 -0.6561476674166564 0.0
72 1 10.989956010251634 13.34688995957098 0.0 -2.5061041168224127 13.36035584444963 0.0
73 1 13.51198882724457 3.4847370758580025 0.0 4.350645545174619 5.5965591320794426 0.0
74 1 12.500270222856154 3.905812722944448 0.0 6.026055829857252 3.170770056257929 0.0
75 2 17.056300375123037 12.66082695046943 0.0 1.2499983370718046 -1.2123642163751274 0.0
76 1 1.9596282667031635 18.665920970595817 0.0 2.114180478155419 -8.393099560103622 0.0
77 1 0.017777646120808392 13.797579587741351 0.0 1.3425063938759219 2.5207462139046966 0.0
78 2 3.1793556917636 0.12609811950045297 0.0 -0.6000543200981332 -2.5480799581010456 0.0
79 1 2.9140835559376117 4.286191493322678 0.0 11.292786490142959 -5.8396418404273085 0.0
80 2 0.6875973618012575 2.8460900414114185 0.0 -12.879385519470137 -10.768819154167701 0.0
81 1 0.2168323057395125 1.0025056648979378 0.0 -3.967686488208905 -3.912091266959487 0.0
82 2 7.483976293808746 11.700229438543747 0.0 5.147260194058218 -7.365407659192883 0.0
83 1 10.455603660902687 15.005627446380943 0.0 2.357651523434595 14.237425014135747 0.0
84 2 9.208813767551337 14.325711824687222 0.0 10.582318067064605 -5.6154838360738415 0.0
85 1 18.70486706594405 7.254528707277307 0.0 -12.78732566295598 -7.761717680411023 0.0
86 1 5.154280861652967 3.160904513239082 0.0 -9.66099570234042 -0.1284402624659927 0.0
87 1 3.368025830451482 11.089386215849144 0.0 -6.9942925715126565 -14.880027204870565 0.0
88 2 15.071556490519884 3.0286003648387574 0.0 0.6631038020849571 -0.7258018885452945 0.0
89 1 1.907421836110292 4.542131396100704 0.0 0.8002579270812546 2.4957415301776704 0.0
90 2 5.528356337064907 13.4203030790879 0.0 -22.963936680632486 4.21070732904658 0.0
91 2 1.7163198473902643 12.94139292535965 0.0 -15.3463980108273 -14.566117447651095 0.0
92 1 13.74830597804919 0.6114342313671228 0.0 -2.496795053988583 -1.2513305546692624 0.0
93 1 15.306585974878427 12.558952053172419 0.0 3.19153411332673 6.303957146403619 0.0
94 1 3.145322763372167 14.383996892368913 0.0 -8.831867574614572 17.661466026146872 0.0
95 2 14.705450900995023 0.370697857940797 0.0 2.10808392477224 -8.185586941053508 0.0
96 2 11.453126774174448 5.84146272425184 0.0 -1.4334067009617641 -1.5107532588869803 0.0
97 1 4.2348326784368275 16.538152035717747 0.0 11.34224148630354 -1.11079209577187 0.0
98 2 14.82069170809656 9.309244707659145 0.0 -0.18465793583848272 1.5097237176787397 0.0
99 1 8.99891040519343 2.7872337538831338 0.0 14.051663601658433 -2.783845128648541 0.0
100 1 8.334496595626698 7.191706007144752 0.0 5.621731262015595 4.203398306861718 0.0
101 1 1.779233445764036 1.695935564657121 0.0 -14.10198942934779 -12.713201063002643 0.0
102 1 3.8957737832795662 15.09474032500869 0.0 18.764752697920326 -11.222312257721615 0.0
103 1 1.6824114840977007 6.44601810375821 0.0 -5.310621666961008 -6.878838523932759 0.0
104 2 2.8659916921877975 17.848437146327097 0.0 1.1012131235154534 1.5260841535522636 0.0
105 1 1.9526934753027747 14.717426721499315 0.0 -5.827633830705553 10.17202011058044 0.0
106 1 6.777008651481991 7.281432008187361 0.0 3.162263231548284 -4.475127256587304 0.0
107 1 3.733573281447794 8.107959008182974 0.0 8.703126055760807 -8.87545065913366 0.0
108 2 15.992208063356843 14.15288590406417 0.0 6.429924061284343 -0.7593229736355877 0.0
109 1 5.593959352965706 0.22405701931359254 0.0 -10.971865161068612 -4.801097135496339 0.0
110 2 2.4636535806191153 0.9438976540946782 0.0 -7.947837442412149 -6.00683881648059 0.0
111 1 5.130391692609384 7.10186247497073 0.0 -22.582768554005305 -4.706315845941426 0.0
112 1 4.587876302852803 3.5327858303096353 0.0 -0.6573001614298969 -0.9165691752827297 0.0
113 1 11.846914464355832 9.361851481010659 0.0 -16.918410724526954 2.577923360520864 0.0
114 1 2.015906448741631 5.500206998546093 0.0 4.824742024920239 -3.4643664525011295 0.0
115 1 16.38979234596062 12.33570996255311 0.0 -0.6707253712781606 -16.472438788550875 0.0
116 2 4.59369884497338 13.11161435940493 0.0 -0.5308186518234103 -0.8527688385538507 0.0
117 2 12.574327993488296 11.828307784149771 0.0 1.011108521396565 4.778920699799194 0.0
118 1 8.247015343775436 12.235712788941584 0.0 1.5790056875661767 1.0835469028148337 0.0
119 1 15.760165303652421 11.933956872128011 0.0 3.7262696718791197 -13.402175905889234 0.0
120 2 7.594668083318484 18.313638614260924 0.0 -6.332062621735421 0.6497455429996106 0.0
121 2 11.188346941091424 7.6432374329640735 0.0 -6.338019546849672 -2.702747788532776 0.0
122 1 8.563499609140807 1.8338391475086717 0.0 -16.4148202305016 7.0815173917083545 0.0
123 2 12.768111511327348 17.767186679719526 0.0 -3.6132760403918214 -7.416184241135081 0.0
124 2 16.667924486106227 10.601471913985451 0.0 -4.287313024026278 0.18715422045520824 0.0
125 2 17.096536000482867 3.2413131157505606 0.0 -4.397246422432226 10.490885240809224 0.0
126 2 6.994294235902205 14.737857843020501 0.0 -4.646058077304535 4.897944965445527 0.0
127 2 18.507654660937455 5.985575782206282 0.0 -0.8091855164105282 -0.012293563254220064 0.0
128 2 12.406990006196658 6.403960867789287 0.0 -11.518350733879267 -0.0015275611301506853 0.0
129 2 13.032399943748068 2.6023439443795833 0.0 -6.36516176838066 9.059385243029444 0.0
130 1 2.0309290849987933 14.26427889946064 0.0 -7.674652816131238 -14.751575612144274 0.0
131 1 10.245582125731111 0.9374144662393725 0.0 10.921253160431924 0.4368897272811298 0.0
132 1 9.350620604248139 4.71964266079574 0.0 -14.290531414144468 -6.204493220146642 0.0
133 2 4.409057667593215 7.48324336322579 0.0 7.503848736403523 2.1493587894204684 0.0
134 2 17.481709046009758 6.27936634105806 0.0 -9.978485671170846 6.06246056259219 0.0
135 2 4.535077267600137 12.112925412721037 0.0 -3.16243782919415 5.352060461933613 0.0
136 1 1.1797525776753335 9.093961005636244 0.0 1.1346135599671838 0.4963014159565634 0.0
137 2 5.861923390567406 12.430519136785112 0.0 -8.041388870818581 -7.2595591058965505 0.0
138 1 19.473924969788705 7.790493317424877 0.0 -6.127388716719902 -15.037221850504393 0.0
139 1 4.726590668953867 15.537092707166092 0.0 3.916882359120796 3.597232931942522 0.0
140 2 16.997867424113736 16.128796965962287 0.0 -1.4532071478636908 0.7920925934333427 0.0
141 2 5.490221567869421 11.610796518418349 0.0 4.275282023589681 13.499544772228921 0.0
142 2 19.586466194530725 2.470964578501819 0.0 -6.696008883186866 14.213295261107614 0.0
143 1 18.848524039390206 2.8930689688253075 0.0 -5.04252371374623 0.7625873101663296 0.0
144 1 0.6688973155233779 1.2629202305408331 0.0 -3.5025540349739233 -1.1769631506602116 0.0
145 1 11.709573415856566 3.2110083524895887 0.0 8.252666476542455 -4.601062029276243 0.0
146 2 13.693506354087177 17.027462638475967 0.0 -0.7112883177293526 -4.140224889144079 0.0
147 2 13.703896958876 16.17793288123841 0.0 5.901058607044161 -2.852644451662872 0.0
148 2 3.7425902351510074 13.097491786645762 0.0 -2.574757946140201 -6.803990457366919 0.0
149 2 18.737891106506623 2.0939169386665544 0.0 -11.699289724360025 10.297317203310556 0.0
150 2 3.025516864325955 9.12614122989922 0.0 -1.4782283072362468 10.403541725004954 0.0
151 2 13.15624133890388 15.13943633445966 0.0 3.487450933549265 -2.9793007993063605 0.0
152 1 19.088471906629366 8.238795059625874 0.0 -9.24873799962932 -4.84928098277105 0.0
153 2 7.462680077602494 6.59926281115043 0.0 10.269711447856281 -9.172624464733415 0.0
154 2 18.92636326348011 10.207833316970602 0.0 -3.0527298875781455 8.990971215027072 0.0
155 1 15.751410946482737 12.904002031163174 0.0 13.00889504114078 3.0177959085114603 0.0
156 1 11.943461118362096 17.812598246931696 0.0 -6.109337417345075 3.40725584424504 0.0
157 2 0.09039493488607972 5.634521815479788 0.0 0.7099360421143925 5.226778805423565 0.0
158 2 14.185777297294942 18.07576617974397 0.0 6.554386770210398 3.3226876616926257 0.0
159 1 18.61950836944455 8.016672405488407 0.0 -7.297267616039478 17.052367342510077 0.0
160 1 17.352378162382717 0.34598629227695255 0.0 -4.349230619855634 1.3312769572269951 0.0
161 2 2.335112302257321 12.356932409179114 0.0 2.145360173988046 14.956927678308727 0.0
162 1 19.314413739512478 4.972533820438992 0.0 -12.103706401240187 1.9054100338283 0.0
163 2 12.087149051848215 10.924041132119257 0.0 -6.053476390242246 5.150061648474086 0.0
164 1 14.87499714437024 7.751458886564987 0.0 16.287384369583542 3.351585988734856 0.0
165 2 19.49161922410707 9.377895290184641 0.0 -7.818533539682289 -0.570825888733699 0.0
166 1 15.535809272906427 14.969219773170026 0.0 -16.51747121708282 21.866247590077126 0.0
167 2 9.035171795565272 10.884770498982771 0.0 -5.264045017666927 -6.563580363248402 0.0
168 1 8.660494313071293 18.924640680024876 0.0 17.78569383730322 -0.43332798953414187 0.0
169 1 3.667141617499598 11.715009597362531 0.0 12.783058110510277 3.979505068834916 0.0
170 1 17.51223506461954 11.729009185606913 0.0 -13.043477774137218 0.07478105591694863 0.0
171 1 6.572541003495513 12.63346106965325 0.0 4.72095548986548 2.7203391679386777 0.0
172 1 10.659778185748268 10.132196628926682 0.0 -9.028702525298852 -11.583787765454561 0.0
173 2 2.5710750830326607 1.9299769123977883 0.0 3.6461603120306516 3.754290692784806 0.0
174 1 9.944275795050434 11.540315356971234 0.0 -0.6735401042794367 11.302436696192347 0.0
175 2 8.408728718068316 18.09315098536596 0.0 5.245507053136386 6.889282675042433 0.0
176 2 16.292457484497746 9.701684866670098 0.0 0.4387777741730534 -5.846272224845046 0.0
177 1 1.4914792424133805 11.635607374454842 0.0 1.8689235740941474 -1.680038763890963 0.0
178 1 0.40872851638095 18.979785194198694 0.0 12.578088263845983 6.364550483149266 0.0
179 2 7.971726147753187 10.689184510699445 0.0 2.756172879220455 1.1767475154881455 0.0
180 2 7.854932516670497 4.176836277314212 0.0 -5.1761922783071705 0.17107428395741542 0.0
181 1 5.108578100322736 16.70853902606795 0.0 -12.372704735428814 8.294521180383299 0.0
182 2 18.067013708782596 1.606157625033149 0.0 -5.936881120744915 0.6187738248887035 0.0
183 1 1.0949206540627991 10.113659271029103 0.0 14.660801281510459 7.083414877347396 0.0
184 1 16.219965956326206 2.960619235798491 0.0 -9.000752013471496 -20.793751412793164 0.0
185 1 15.612434782616555 1.6232983580660771 0.0 2.4507736479744726 18.20667137286438 0.0
186 1 1.2349450216078226 19.416363295747527 0.0 -2.657456081233634 4.804476566246028 0.0
187 1 6.162072632986949 19.68142450086406 0.0 -4.965409233310259 1.5077146513177624 0.0
188 1 14.04181277971155 3.996131153227928 0.0 -2.439693940450334 -5.8415585168447395 0.0
189 2 5.9204135312027235 9.071389287866962 0.0 -2.06192086789181 -0.693801885432331 0.0
190 1 1.4171711066507198 2.06378334558509 0.0 -5.098307225964961 2.001965420366098 0.0
191 2 2.7821560615738115 13.25077286057974 0.0 -3.6634478414630354 -4.268337121487635 0.0
192 2 0.01573953065002032 6.733927454604486 0.0 8.371128051343446 0.0800560187553515 0.0
193 1 1.5647999277984037 10.417912825436341 0.0 0.1271857340574294 -4.331655246390771 0.0
194 1 9.928215656254531 13.885493921740553 0.0 14.341236364758833 -6.519870104795399 0.0
195 2 4.069142020248967 17.97349699571577 0.0 -6.502824507960923 -3.3278445528825014 0.0
196 1 2.5271659024065807 9.899991317313043 0.0 6.620974929837371 -13.135623839228534 0.0
197 1 0.4150214455706513 9.708755663894214 0.0 -2.2797955263813283 -16.57048607574426 0.0
198 2 5.49373855216846 14.947351244948306 0.0 -6.985552319051737 0.22650052907944954 0.0
199 2 10.60993429289103 4.074523669689588 0.0 -6.451983546874551 -8.320589692147736 0.0
200 1 19.632708554722974 14.46513120109886 0.0 4.509259824617762 -0.024539870478915385 0.0
201 2 5.839209068352926 5.65624275470038 0.0 -10.568994886867479 10.727331318548586 0.0
202 2 4.256177609455059 14.1806546213215 0.0 10.592499253438305 -2.2534188816734333 0.0
203 2 8.882124155008064 0.005312051207675854 0.0 3.4683095208270784 -6.843321060501964 0.0
204 1 10.671858516236812 9.251629042741119 0.0 9.598414090623706 3.9224976543809555 0.0
205 2 13.01318150094763 10.388214484132835 0.0 -1.174484767432223 4.180597658390812 0.0
206 1 13.441645028485274 1.3197142981127297 0.0 9.571384754059942 -3.7310707543812955 0.0
207 1 9.31290575366162 12.48891189177651 0.0 -8.140700369773056 -1.797138266026541 0.0
208 2 0.45695942567547115 0.1029037550420888 0.0 -0.1641396016383468 -3.9246146622883002 0.0
209 1 13.775477089876242 2.0902081394566996 0.0 -4.171789503286413 -9.654915476825092 0.0
210 1 13.050507759915787 18.546166756085135 0.0 -4.085502804293055 -5.145365787361609 0.0
211 1 1.2476475249524956 4.516619857551149 0.0 7.336999647312651 6.366379852826689 0.0
212 1 13.167581708762459 7.632307213291764 0.0 1.4883402179531173 15.086161752152991 0.0
213 2 13.938583451315731 7.05836787477037 0.0 1.9603999715484648 -7.051476010309776 0.0
214 1 12.70043418094902 7.806906946167594 0.0 8.93252553288859 20.03886192569095 0.0
215 1 2.656642159403834 14.814231636089994 0.0 0.18969948868055442 -4.918085295175696 0.0
216 1 17.343831831045705 9.90096406333802 0.0 -1.035886173252713 6.018922028776582 0.0
217 1 9.852451593899733 14.764501690703058 0.0 -16.805498178159016 -5.158491827278496 0.0
218 1 13.51279800384427 19.320963979859616 0.0 -13.36541264361986 -9.80993409313728 0.0
219 1 3.185840615085713 6.245582527238257 0.0 7.1383441736135405 -10.052833594489009 0.0
220 1 12.43505068147699 14.124095413806813 0.0 -3.8296961094465867 6.485536242618641 0.0
221 2 16.69342784105572 0.9710017259705324 0.0 -3.606537256468721 12.906466728505116 0.0
222 2 10.164828079628027 2.1774184926976745 0.0 -3.1903409055738567 -3.04312817711016 0.0
223 1 0.24529587025682023 4.4052280241335895 0.0 3.311760391735383 -3.155067359139984 0.0
224 1 13.296178721988088 6.377979669832436 0.0 5.494254623574562 -0.9416573868785051 0.0
225 1 6.188476702249803 7.088195300877607 0.0 -8.23394951442897 3.179217287464618 0.0
226 1 13.740640525714136 9.580523458141148 0.0 -5.868827932593255 4.636350836273429 0.0
227 1 1.2679677935761258 10.793232397693192 0.0 0.03199576719294552 14.968849298657554 0.0
228 1 0.9792354704133631 11.411393727433829 0.0 -8.171054891451535 2.0673708898626315 0.0
229 2 10.371569480954014 16.7528161809431 0.0 -1.8799845452260298 -1.8261718246493746 0.0
230 1 11.701126972815908 4.936290192392022 0.0 -1.9868565192907508 -8.91789762596088 0.0
231 1 9.999582710005601 19.25232687987061 0.0 11.830811308761207 15.263868128934917 0.0
232 2 12.383028810047545 18.809513888315813 0.0 -9.129610751246496 -3.6120111842780105 0.0
233 2 7.171175199581394 1.316270177727662 0.0 10.79168202861622 0.25284237102520263 0.0
234 1 16.36101597872723 0.2813352780935608 0.0 2.1745822475326895 4.474355919123735 0.0
235 1 5.544959408140228 14.149500078790748 0.0 -11.534127988420952 14.568979276438295 0.0
236 1 6.855111351391384 0.38452827923204935 0.0 3.5054254330455117 15.306872809224243 0.0
237 2 11.885653880879598 16.768930152829235 0.0 9.343134411506506 4.334796630146591 0.0
238 2 8.688126577378767 5.196677855479817 0.0 -5.188918089937007 0.7226454910864423 0.0
239 1 1.5927542010335305 17.96766149385218 0.0 -3.743308291428326 -19.644086463386383 0.0
240 1 8.858027784108117 3.490006054430655 0.0 7.213508968203709 5.404380517122207 0.0
241 1 14.488071757282722 1.8435084469812193 0.0 12.59212896803769 2.601314801280996 0.0
242 2 1.0122104319694796 13.38192048738731 0.0 0.8197078551036776 -6.195794597734425 0.0
243 1 9.868789485787811 18.65002399588828 0.0 3.415467118888459 1.0943766510377684 0.0
244 2 12.625343356169987 12.85202333034074 0.0 1.3981742226905236 1.564324292594286 0.0
245 2 17.62970156143525 14.469090246956785 0.0 10.320044684209334 5.157455905191642 0.0
246 2 10.949571279067085 17.713356140468637 0.0 6.6821134239414945 -2.4473552268891052 0.0
247 1 11.607258478171577 6.647753933336348 0.0 -3.738624180220609 -6.398883672215258 0.0
248 2 5.776271868711028 8.209683993614133 0.0 5.249338401278346 -5.153111173447182 0.0
249 2 8.377380572031955 8.28911452538879 0.0 11.939291288925283 5.681175059645634 0.0
250 2 18.047372686270375 19.162091383351065 0.0 -2.0938166874494244 9.202614548475022 0.0
251 1 15.857936347456269 7.7461749463938885 0.0 -3.5729508417764575 8.422193117022161 0.0
252 2 6.659235330779346 3.7672075373293707 0.0 16.865440045726928 9.853820344688609 0.0
253 1 2.1807637335636736 6.5791538945373125 0.0 6.504789777148602 -3.7485201608578826 0.0
254 1 14.478493308968085 2.386476008547784 0.0 18.17793811592331 6.96323862117041 0.0
255 1 9.481084049808931 17.112798242777288 0.0 -0.5861778121777305 3.7257539017344454 0.0
256 2 8.932051182720462 9.595745599783749 0.0 13.074955711374797 -9.79594102365128 0.0
257 1 19.71521088660609 18.698708430203535 0.0 4.805888984023037 -8.581744772557132 0.0
258 2 18.543120421281746 9.203121900360905 0.0 0.7609841741084796 0.3371661771577565 0.0
259 2 13.347124119886184 14.293848589329544 0.0 -2.0043449251121745 7.893142632001796 0.0
260 2 10.998391437395691 16.01057574811427 0.0 -1.533624842657509 6.573340545082143 0.0
261 2 6.377881496660509 17.228485065208105 0.0 -2.657644258557724 -8.593441933296148 0.0
262 1 15.856095012535917 16.13949843370431 0.0 -12.899527667319049 -6.756700836750737 0.0
263 2 9.785180994615512 9.16823453237897 0.0 -6.695233414730873 -7.7636322918465 0.0
264 2 15.833335852064964 4.1473671089582185 0.0 -4.445374664191711 1.9374080966759692 0.0
265 1 1.759927641854486 0.35702601809101964 0.0 17.53755912415486 -0.30212937804677864 0.0
266 2 16.831865709951717 14.927553266604493 0.0 7.928057737560003 -2.246926974666972 0.0
267 2 16.844424837488607 7.037971225241412 0.0 6.705274801155557 -4.927981517923538 0.0
268 1 8.103401391759618 1.746961128814958 0.0 -10.327086982446149 3.2969145772626645 0.0
269 2 17.597129810765413 7.81938530668959 0.0 4.000878147761191 5.18984318293132 0.0
270 2 2.8836661159447776 8.235407082205963 0.0 -1.0730583513688894 -3.83354460612642 0.0
271 2 18.002524948919522 5.163762521450127 0.0 -0.5641455636886338 0.15305507871206545 0.0
272 1 17.87708348688353 15.409924722896147 0.0 -2.8115182512393226 -10.914822771029673 0.0
273 2 15.528216773845 18.347401013579777 0.0 -5.065951498267777 2.2996567244997697 0.0
274 2 8.028907483717417 14.587079470048407 0.0 11.116297042092857 11.476700891570964 0.0
275 1 14.944389522239895 14.341313847310209 0.0 6.558488826917834 9.701648985671596 0.0
276 1 11.023080821854386 9.79730271452057 0.0 4.536252933823649 -6.4654769108619305 0.0
277 1 6.426624237850245 9.710380045549183 0.0 -9.442879739479048 -6.3295160894903875 0.0
278 2 11.55826092631904 8.611003363910536 0.0 12.856471185139224 0.03126879040975675 0.0
279 1 14.396377847750125 3.502194079953252 0.0 -13.294857753116835 0.3422609314905764 0.0
280 2 0.11540639023078285 12.53113174167577 0.0 10.625284301979477 -11.168126100106955 0.0
281 2 16.642830331330387 13.565976974479925 0.0 10.540438817321498 5.143340232599287 0.0
282 1 10.985418515303577 13.816766016312437 0.0 -3.7001487939020645 4.91815516085336 0.0
283 2 12.3530637431207 15.756818079823631 0.0 -0.6163333532628551 -1.1109629324167722 0.0
284 2 13.629514806375534 12.248240517442081 0.0 -0.9362160367050626 2.7996550331924337 0.0
285 2 15.40578871998562 17.41206382521782 0.0 -3.044610976499212 -0.030292138851884115 0.0
286 2 6.414620757625606 15.329419594712268 0.0 6.379154297621651 6.049564093754559 0.0
287 1 8.674689082053748 4.3584321266757975 0.0 -4.918265003308177 6.822860399662311 0.0
288 1 4.912118742384517 18.11201730253059 0.0 1.3701842569071816 -3.0137762953574234 0.0
289 1 5.9619294375823415 14.127850109364744 0.0 10.080109319038256 5.726834408516808 0.0
290 1 2.8797867826973023 13.99170844292259 0.0 5.011944778824959 -13.509118892211804 0.0
291 1 0.8282130311856305 6.7300606767097815 0.0 -1.9867506403899549 -5.098889314187037 0.0
292 2 6.923573680980352 2.924911113049643 0.0 -1.3306262209678434 -3.679240384272322 0.0
293 1 15.807238262006264 10.374632392719997 0.0 11.351360996409426 -2.7514374012270912 0.0
294 1 16.79661601250336 11.604270504442619 0.0 10.891616722060894 -0.9012704654829424 0.0
295 1 2.3304222328951494 19.12731271703474 0.0 -6.281934683713548 13.779959298783913 0.0
296 1 15.485168399638884 9.83208909781228 0.0 -17.54760350351043 -12.128762441567796 0.0
297 1 9.706027401583063 16.468010700586113 0.0 -22.170503886270275 -17.223827305508305 0.0
298 1 10.796008187741462 12.789819770486623 0.0 8.376541023079803 -0.2585332955812065 0.0
299 2 4.942447836709285 6.062096098518963 0.0 -4.406061468832318 -14.373606161263325 0.0
300 2 1.47277202114763 15.92414983883107 0.0 1.9669982072653116 0.22334751535251907 0.0
301 2 7.502183912826158 9.182468292880303 0.0 -6.660606713146914 6.6170884692840355 0.0
302 2 16.460511827519642 17.29042160185218 0.0 4.5336342989747775 -1.3007924852940103 0.0
303 2 2.804097092732395 5.366767158902797 0.0 -3.5236942691635105 1.6523408052019042 0.0
304 2 3.623464571266849 7.13193621138604 0.0 1.5667329705968491 12.666984797398825 0.0
305 2 9.150345308447745 7.013633212863797 0.0 4.703060647131889 4.074946693991178 0.0
306 2 4.934949920047284 8.73254922116902 0.0 4.941264489547105 4.200326774523032 0.0
307 2 6.410663918482035 16.265902071899426 0.0 -2.4672405378616 -0.35318050330976825 0.0
308 1 12.347705770823142 14.792039259910682 0.0 8.486648301858466 5.711614759019206 0.0
309 2 5.350259101224028 4.388029725214487 0.0 -5.207213962983795 -3.548595440513354 0.0
310 1 18.464486857942283 15.302054673207074 0.0 -9.19326013854422 -8.447916424343724 0.0
311 2 2.9640367690621643 18.84525805245222 0.0 -1.5393389882075508 5.66599044677064 0.0
312 1 17.33504809039822 19.627833037883757 0.0 2.679529516648803 0.9687750191154461 0.0
313 1 3.916118028238532 2.2537981653674617 0.0 13.388009097051572 -5.081206461338036 0.0
314 2 19.138348229119376 16.900906394658286 0.0 -6.893562018334886 3.0756277773610483 0.0
315 2 6.560106431498812 11.644484610142063 0.0 -2.008884068275032 -2.125580400701433 0.0
316 1 0.13397640734771715 4.844908051453849 0.0 1.8150703057006288 -10.797976751869061 0.0
317 2 17.24538662194578 17.863259726396848 0.0 7.706585308722246 -1.95650496411718 0.0
318 2 6.757538919271502 18.477122991223855 0.0 -2.091890114151073 -3.1017852477575754 0.0
319 1 19.363461520641973 0.7022919494412174 0.0 11.465098058136183 2.347242679188408 0.0
320 2 0.7305177487645085 16.42206321262347 0.0 11.988340569023146 -4.5461560190454255 0.0
321 1 9.545632695392037 17.80531036335037 0.0 1.5950428858054813 -1.3833803656069241 0.0
322 1 16.249766385021747 8.063624488786814 0.0 6.40174396319332 -4.987484365946605 0.0
323 1 19.52676939414504 15.910823263353663 0.0 -0.3629504292538422 2.384523838671125 0.0
324 2 9.36585628183972 6.154834472987252 0.0 -3.2638637223774687 0.6619172392372006 0.0
325 1 9.520956696558473 18.399966267732033 0.0 -12.905001710960395 11.610832127801713 0.0
326 1 14.519025756037811 13.142909515912756 0.0 -9.300176334956742 4.179836354900951 0.0
327 2 13.694130672246347 13.32862312387411 0.0 7.916901803269105 6.44093479814879 0.0
328 1 2.2501327611906303 17.452380519122343 0.0 -2.3403238748382904 -3.653900392084789 0.0
329 1 17.419101107228613 18.615461992828042 0.0 -1.76420342557891 -8.487279512048268 0.0
330 2 11.665651069327357 12.23258441972444 0.0 -0.38494820793504286 -0.2963184069383013 0.0
331 2 6.776120655508778 4.758812397749409 0.0 -9.396788926538507 -8.598370159217959 0.0
332 2 18.92496120932453 13.353863331961492 0.0 5.829670941213046 6.19472826224884 0.0
333 1 7.882486120511483 19.215853151618578 0.0 10.058936933551108 -10.05852470557454 0.0
334 1 8.076542004187942 6.102046791236117 0.0 14.456884210000595 -10.920716684622176 0.0
335 1 15.307405777844872 16.22297115334174 0.0 -0.1459013632041067 -14.937398725252237 0.0
336 1 1.9822153498600368 10.33487607403572 0.0 7.091773690940868 2.520456517649163 0.0
337 2 7.855848924071521 5.0719470586044535 0.0 -17.04545347784169 4.222223852774031 0.0