ITEM: TIMESTEP
0
ITEM: NUMBER OF ATOMS
400
ITEM: BOX BOUNDS xy xz yz pp pp pp
0.0 19.7609 0.0
0.0 19.7609 0.0
0.0 10.0 0.0
ITEM: ATOMS id type x y z vx vy vz
1 1 15.305934823875964 4.817169150881486 0.0 -1.1182450699238473 4.740222885680059 0.0
2 2 11.03594380252593 18.49755004418946 0.0 -8.013721310048092 2.841825233737296 0.0
3 1 15.1603158136507 13.348647111674081 0.0 -9.548943412987208 12.049364017599903 0.0
4 1 19.562646142165182 10.996418777472778 0.0 -2.623276105985348 16.794620898068 0.0
5 1 3.7201146269735674 13.965030462885235 0.0 -6.7377523040100336 7.538087565370509 0.0
6 2 0.6037760669032278 0.7326750048857907 0.0 -12.311044244518156 5.276569670578035 0.0
7 2 12.08705016543917 17.486193361152576 0.0 -15.75182098473895 3.721019508589128 0.0
8 1 11.488203623782342 10.025654749806622 0.0 8.77821701057762 0.07743016321887361 0.0
9 2 3.817479455394368 8.495724129142094 0.0 -4.54459607581176 4.5199274158378 0.0
10 1 9.466952247163885 10.489895279802697 0.0 -7.128803871330715 11.55126730528749 0.0
11 2 13.692102792879032 7.843323483751157 0.0 -5.204788689037158 2.0644814051242624 0.0
12 1 8.305587789189163 7.838603615736733 0.0 -7.989521102059025 -6.87487272881843 0.0
13 2 16.6575754753612 12.444367342958754 0.0 0.8145446052416766 -1.5326637435383144 0.0
14 2 10.038592404454018 18.636489809534712 0.0 -5.2461177418741345 2.771248696221071 0.0
15 2 17.249271975585174 5.2804948994622105 0.0 9.921821666311462 -2.86528951874763 0.0
16 1 12.550636173124243 14.308952446232102 0.0 3.0803324592493824 -5.282946580709658 0.0
17 1 8.742287766032318 0.7422830109431895 0.0 0.883061874020141 -6.106496834611698 0.0
18 2 12.34560346353623 11.575481187258694 0.0 -4.560579059310325 5.1049616599644905 0.0
19 1 3.6630271760764996 16.696055623055955 0.0 -7.479340990491084 -0.054161028675640814 0.0
20 1 4.909232816421965 0.2941606054123144 0.0 -3.9591540998400436 -1.6064670406840085 0.0
21 1 13.560629933631194 3.663646250514024 0.0 -10.159328692671586 -0.11598620038543644 0.0
22 2 2.1866239842329924 6.82614288845544 0.0 4.965007148598381 -0.1090161500102418 0.0
23 1 9.0110521042383 9.628573074499293 0.0 -3.713981109732382 -3.1745631772980625 0.0
24 1 14.181146662188796 6.274789284495616 0.0 -4.217127966735126 0.3786207324611252 0.0
25 1 11.391498185678083 16.413424217960102 0.0 -4.9462066955448885 -6.429353493317592 0.0
26 1 7.633996157631747 9.733389022106175 0.0 3.8702791498495226 -11.027935390984739 0.0
27 1 11.905330393047223 3.6435333144378816 0.0 2.2339536488276264 -15.24574983114635 0.0
28 1 10.251730149976595 14.582259229241137 0.0 -2.946296539751213 -13.270740332921005 0.0
29 2 9.211576705716805 19.30834403068617 0.0 -0.2308612978927287 -2.1251933015077387 0.0
30 1 14.778329264597296 18.325581082499834 0.0 -0.0005410428477802128 -11.407265512221969 0.0
31 1 18.06719924541828 1.8974372494518938 0.0 5.203422482671414 1.2159482749152046 0.0
32 2 9.632207900342262 7.93347109047025 0.0 1.936477740979616 5.18197180970418 0.0
33 1 19.161410373853666 0.9494507797474101 0.0 -2.8674094003905712 -7.821914993129 0.0
34 1 1.808021435694199 2.258301855037495 0.0 7.680666357439493 2.5651741235474184 0.0
35 1 11.94025742355839 16.53753807970677 0.0 6.012740818352445 -2.8502158255419863 0.0
36 2 5.380281527581243 1.2020016797272495 0.0 9.097921979096698 4.681382829472267 0.0
37 1 6.228030297903789 15.794905400614791 0.0 18.959096996166085 -2.847961651422714 0.0
38 2 0.7852489801187649 13.83010875170049 0.0 -7.485458715217734 0.05618696148398688 0.0
39 2 3.498157479067457 17.784271111135716 0.0 10.656316545983909 -6.2814313558430594 0.0
40 1 1.3201477115517035 9.100180670411877 0.0 -3.331009388988121 18.224313208555383 0.0
41 2 17.327098346186858 9.131164441341676 0.0 -10.440275221798439 5.980999867228441 0.0
42 1 12.960393461145216 17.467921221984422 0.0 10.945738426105665 -7.738946552898179 0.0
43 1 6.817932081904516 13.561500059636415 0.0 -3.8347904282262166 -2.2247616092082607 0.0
44 2 3.4856727823853455 18.69931489244297 0.0 0.3777046192503664 -8.142436232169134 0.0
45 1 5.5611404267569515 8.699874327181393 0.0 -12.85916937582597 -25.586531764278945 0.0
46 1 0.351733316199444 18.472507849479104 0.0 3.4521556576171037 -14.35510388000807 0.0
47 2 18.72397950106898 12.13403951720061 0.0 -2.966964521092841 -7.208180505235058 0.0
48 2 8.601051272280996 17.69372646659383 0.0 -4.662774755790634 3.177471032945991 0.0
49 1 8.563374187918084 2.9768391152045455 0.0 5.102795955703064 -5.895422102500245 0.0
50 2 4.683625753451339 6.671995066556998 0.0 7.212803664896916 -4.229283369272446 0.0
51 1 18.05678228047347 10.423610800642397 0.0 -2.5713883491280036 6.958832126675714 0.0
52 2 1.911117955713599 1.13700417025036 0.0 -6.915541418225103 4.149406932833419 0.0
53 2 11.13348744569781 17.318231222506974 0.0 14.940042532104508 -0.21864516180457744 0.0
54 1 4.870120860629966 19.42901991104037 0.0 -7.260206397696385 11.358066045865325 0.0
55 1 8.607442817651277 1.4246784365139418 0.0 -12.210804893398528 -3.768905458603512 0.0
56 1 19.36360871630003 18.264388632856942 0.0 7.104302228796874 4.036363092353673 0.0
57 1 0.6585167738595961 9.12163425232768 0.0 -0.14651874042376337 -3.4088017299713473 0.0
58 2 11.90029191326893 6.019730867722847 0.0 1.4765372413304056 1.354881869910499 0.0
59 2 7.0637139729528355 1.6445131979112786 0.0 1.8679858452290532 3.338285311250989 0.0
60 1 14.563350017305792 4.047610985446057 0.0 -2.826219615699799 -11.207584887934985 0.0
61 2 5.065718059761602 9.477306428512064 0.0 -2.7349231002118537 -4.264632028451983 0.0
62 1 2.852679201506675 5.245685944163458 0.0 -8.582577400408699 -6.7530239962341065 0.0
63 1 16.29209382437667 10.265362164567033 0.0 -8.100828878006515 0.2123222326618961 0.0
64 2 13.109354710262293 15.827999850312606 0.0 -2.8494191048164152 10.153184932858041 0.0
65 1 13.422616191082941 17.581614653586037 0.0 1.7498360941405195 -5.120791590383689 0.0
66 2 6.615502851721171 10.904869400855452 0.0 -1.0639312107153127 8.16947098557914 0.0
67 1 14.009588904291466 9.361525309963612 0.0 0.5479378238323079 2.631970579702168 0.0
68 2 6.289424683906652 12.895154444751824 0.0 -1.1764331112594135 6.9913514262107785 0.0
69 2 15.666707140033484 15.437460493805657 0.0 -3.70018812113635 -1.6896674531907916 0.0
70 1 16.788316092710012 1.7985282183498463 0.0 -9.175480701325586 5.527308187023504 0.0
71 1 16.894865734349352 4.513863381867723 0.0 -2.542056395895592 -26.50831099469099 0.0
72 1 15.457545672527296 9.694033408346518 0.0 -1.0456684811986592 1.6513317338285962 0.0
73 1 10.811188411821517 10.076816447447989 0.0 12.794255990829171 -1.244218398415476 0.0
74 1 12.052863737257919 10.805423323845496 0.0 -1.2338671772566914 -15.52287748715964 0.0
75 2 9.160425818049012 18.28865915467071 0.0 2.2748468244296385 -1.1276903788459574 0.0
76 1 13.977240723835854 5.509368786981233 0.0 -4.796113044109561 11.060629343286358 0.0
77 1 14.589931990869031 5.26493816332841 0.0 -7.421312553966256 15.065007033701947 0.0
78 2 16.310026893102783 8.546506140634003 0.0 -2.4116833262708375 -4.030010592101184 0.0
79 1 4.53945531222217 3.0112385822370595 0.0 18.845488788941864 15.567505096452216 0.0
80 2 1.4372291530922203 4.5810441939630495 0.0 4.872000328370845 13.919626685388137 0.0
81 1 7.841982215558967 14.553944323357422 0.0 -7.692723322430272 3.7394271104598347 0.0
82 2 6.97195576045621 17.166379562536243 0.0 3.2287907700923104 -16.561095978338788 0.0
83 1 6.700656882881947 6.544335185109915 0.0 -0.3079175321451054 -0.38342444055244684 0.0
84 2 6.273422674203543 14.703266322541152 0.0 0.9246142381934594 -3.3065007703652785 0.0
85 1 8.068039054371289 8.97020482014238 0.0 -1.6043768395640274 -4.8929764702777 0.0
86 1 7.959438903570307 4.5655948881439 0.0 -5.781671748821025 -14.158738699150433 0.0
87 1 8.356550572487437 8.361799137657696 0.0 8.257353091580331 11.629842144675797 0.0
88 2 3.1721338297015698 15.994947752214962 0.0 7.072368186553635 2.6807697277170446 0.0
89 1 4.200646046573964 9.55412148798134 0.0 7.982704789157551 -1.6577863845707044 0.0
90 2 2.6844772909351517 12.327580257260067 0.0 2.8400842378067552 -4.680544013716659 0.0
91 2 6.890747027591435 16.105683187042537 0.0 2.7969259458970166 -4.372041150390531 0.0
92 1 19.174692098427332 2.1643285882651924 0.0 -10.43360918401999 -12.227473357325952 0.0
93 1 7.785087927313982 10.919006540998188 0.0 2.6891968106129123 1.1488582147116397 0.0
94 1 14.332791200928245 4.742331538941082 0.0 2.692156241225352 -20.32618416524612 0.0
95 2 4.407094940089424 15.953855605687407 0.0 4.967447573344957 2.2385279305720545 0.0
96 2 5.844012152735847 13.630520709029618 0.0 4.9836043173000855 -2.0346856481175974 0.0
97 1 8.383739647088687 14.56038692013217 0.0 5.953950892586161 -1.5162326815907188 0.0
98 2 16.410635483536943 11.558314384861482 0.0 -3.1259211794582202 3.4714999105614974 0.0
99 1 3.9339583859807523 14.964736340717439 0.0 -6.174888297150511 5.773090004000942 0.0
100 1 5.03078310170175 7.603558419387713 0.0 1.5977716883894746 9.803073753221495 0.0
101 1 3.9230192567367004 11.773997374023663 0.0 -0.5101658742242258 19.526298172250563 0.0
102 1 14.464895990511158 7.49598832675301 0.0 6.998978909877097 -0.6059940499191586 0.0
103 1 11.665527704986745 9.078599961931792 0.0 -8.172014498648823 5.194495680500347 0.0
104 2 11.899387814396649 1.7480688350068152 0.0 -9.99506580271166 -1.2927993482773315 0.0
105 1 18.7129155076696 2.5127568350813383 0.0 -6.688144860628339 10.161488981999272 0.0
106 1 8.372640178571357 10.02981629118917 0.0 17.539984091769426 -8.37902630805472 0.0
107 1 5.512483754780606 15.579880604223115 0.0 -7.723976363333427 -12.092905847010016 0.0
108 2 4.177905720287054 7.556156424807328 0.0 2.347365948732965 -1.3171415941869404 0.0
109 1 15.884799961828504 3.8255613109408735 0.0 11.379040608259178 3.217837223159136 0.0
110 2 16.416279132795836 7.410118656475414 0.0 0.6356608634146036 1.8374371824431885 0.0
111 1 15.046747137168854 3.45585823512393 0.0 -2.5400944163037664 1.408012709302547 0.0
112 1 10.725424318496177 2.4015102284051784 0.0 -6.359914877370209 -17.044584912170162 0.0
113 1 10.595295619421396 8.2178323311409 0.0 0.7440027135385789 -19.62139074370997 0.0
114 1 18.80685859172782 11.030672738487045 0.0 -3.855233966756409 -2.2846077351194305 0.0
115 1 9.099138424069324 5.396270990241758 0.0 5.128588377257937 -3.798352227504022 0.0
116 2 14.631492448677944 2.656102859838644 0.0 1.1461694683747312 1.9455579347717018 0.0
117 2 19.18757178604531 4.496897955057142 0.0 4.504225756267924 1.0161165036820212 0.0
118 1 3.133705606275791 9.823359825342363 0.0 -9.446098124654089 -7.87758215472004 0.0
119 1 4.290485119827879 12.170672811669707 0.0 9.251104110135289 -0.5386664833074196 0.0
120 2 18.044046315899106 0.056089061301427545 0.0 7.571585239450444 0.967390296351291 0.0
121 2 17.974381057287903 5.66120158882487 0.0 6.079955815428108 8.681773509833548 0.0
122 1 11.090928233732392 5.3487863330716925 0.0 -11.811291843451736 -3.5501197628102594 0.0
123 2 17.72433159324265 15.456450538529708 0.0 2.6763440520328516 4.845139148554759 0.0
124 2 16.631576138835523 16.039761810717486 0.0 -0.11604872668962432 10.90267106515859 0.0
125 2 12.451933872255294 2.8138211601016576 0.0 0.16845161126797958 2.851890055749861 0.0
126 2 19.033035460619324 5.383879834550471 0.0 -0.5358294304897279 -2.8164991294739927 0.0
127 2 0.5953166011687538 2.524887969263937 0.0 1.334955464188846 -14.106375460150828 0.0
128 2 4.507248665678892 1.4756499374631808 0.0 5.3656598506833175 4.7643824401059085 0.0
129 2 7.641018480111454 2.579954507388224 0.0 4.7967839723260415 -0.7852440369120292 0.0
130 1 3.5467982533403464 5.057720826165392 0.0 5.8809930681261315 -6.9584503340250246 0.0
131 1 7.199903869148537 13.138103015012446 0.0 1.6556295723120973 8.692123834452648 0.0
132 1 14.664211376035718 8.342085764777824 0.0 -14.870007182643192 13.931850333696284 0.0
133 2 18.679999993032883 10.052624664354221 0.0 -4.319182474749605 2.9346960794118755 0.0
134 2 6.6810491020135965 9.81201823396851 0.0 0.03310080433370946 4.322648641639505 0.0
135 2 15.979619020640428 12.920755999218034 0.0 -2.1016677160413075 -2.3031548853585466 0.0
136 1 11.274624487826479 14.537556097539413 0.0 1.5849624293387843 -0.21609275046804768 0.0
137 2 5.590277853415539 6.3264046164961565 0.0 8.057663610437618 4.7888868599029 0.0
138 1 17.67954125120658 12.388242991326267 0.0 19.537471286964006 8.391133151144105 0.0
139 1 1.5592261906785776 8.71624938449594 0.0 -6.249159488609067 11.123541317039981 0.0
140 2 0.8600452134354097 6.909424225841954 0.0 5.355576895343193 1.9400621547189798 0.0
141 2 6.516318695377481 2.9925187795881607 0.0 -3.4447993071533576 -7.309934503468705 0.0
142 2 18.656608535039197 16.378044127617002 0.0 -17.43935198809172 -14.423078035271656 0.0
143 1 11.51924160317795 10.942460793248614 0.0 -9.854322151863196 2.7695357878941493 0.0
144 1 13.555903953212706 1.3927506448821214 0.0 -11.048524394598894 1.543025132211626 0.0
145 1 11.731808495378543 18.885025534407973 0.0 -0.8220623847903452 6.934914742067282 0.0
146 2 11.403408895143418 4.2926235098516115 0.0 7.79089690633204 -2.83052131591062 0.0
147 2 13.38445606018201 2.6693607934640142 0.0 -1.9737563002990373 1.4213860102971563 0.0
148 2 18.601200768496362 15.371103077167898 0.0 -2.556142735391865 -4.632872621069156 0.0
149 2 17.574424491505184 11.484858572496115 0.0 4.1014596861118715 -2.9139807769419575 0.0
150 2 1.4654270990163714 18.408273543171845 0.0 -0.11714144302059878 -1.5239026863609673 0.0
151 2 18.810310041497107 19.175830049923498 0.0 5.992924324988417 -7.433946574111673 0.0
152 1 6.916724828292346 14.251418821602119 0.0 7.259792711177547 -5.682624657704815 0.0
153 2 7.897860160172166 15.89876995700908 0.0 6.247126969945058 -0.21629223437973213 0.0
154 2 10.536079320642175 4.1667263840572915 0.0 -7.74564149670923 -6.51610656166498 0.0
155 1 8.466630348359132 3.7617873670516437 0.0 2.497367508004712 -2.5380229788474002 0.0
156 1 7.16974179704749 18.190301894450098 0.0 7.756214793740165 2.6515424012377524 0.0
157 2 4.763393947643729 18.33429938936128 0.0 -3.406406167566248 -2.082228911374376 0.0
158 2 19.02941569643438 17.350884484097122 0.0 3.9354210612764327 -3.945436318092871 0.0
159 1 13.575851337098447 13.377926796638093 0.0 2.2360950149368137 2.5024185527528906 0.0
160 1 10.249308052758945 9.980527870506625 0.0 0.33368577717071585 7.445090975572088 0.0
161 2 10.351336131219918 11.921315979521866 0.0 4.948543255903613 -2.609109894089544 0.0
162 1 16.77510809043691 1.291510776755696 0.0 -11.058339836487887 -9.09034570624206 0.0
163 2 12.784956603615152 1.7689911195816672 0.0 -1.802804402437753 -3.737552099406887 0.0
164 1 7.329446686631381 4.9567115611936625 0.0 -14.23917541502338 5.259728755885498 0.0
165 2 1.15112658385859 19.727589931276565 0.0 -1.0766691669985438 -1.3070921861150027 0.0
166 1 9.484275283250685 11.13211189528928 0.0 2.1226354592095844 -3.2805023100721185 0.0
167 2 17.20238969035055 17.624214176302118 0.0 8.421888289884068 3.5916759917556447 0.0
168 1 8.367091878695176 0.27669436236254846 0.0 18.46848036024159 -1.4665613667789295 0.0
169 1 2.7581677325308416 14.383141977770027 0.0 -3.710079284117106 -20.45731745260365 0.0
170 1 10.512924403927098 7.320403833002127 0.0 7.806351547040337 5.952357375769456 0.0
171 1 9.566324606886546 5.313260110292378 0.0 -3.9628378798710813 -10.23173911051483 0.0
172 1 3.3542206450439846 13.279637723022711 0.0 -5.563145871547631 1.211948256744427 0.0
173 2 5.555239254964633 10.690307683894504 0.0 -2.370404784729493 1.5860310905818849 0.0
174 1 5.066805063822492 8.312923912761866 0.0 -1.942625712934708 -3.378129021232394 0.0
175 2 1.6874334687198 12.904130342081785 0.0 -7.403331836248697 2.4675070873114664 0.0
176 2 8.267852396669984 13.635846662915226 0.0 -1.191151597198859 -8.042252960605365 0.0
177 1 3.6574887234183757 9.541726542286797 0.0 -4.359794035147161 16.933676888403845 0.0
178 1 8.130465572235108 18.293573271382936 0.0 0.7699107911331251 -2.937491929065449 0.0
179 2 3.0539422935104557 11.279029476613267 0.0 9.088071315393737 -3.493932892004726 0.0
180 2 8.890149239107881 12.82908626223916 0.0 -3.1536745654356793 2.630763861787335 0.0
181 1 19.67763176508323 14.331476078381357 0.0 5.127729347274697 2.537904422584857 0.0
182 2 10.79619425712437 6.665171808922301 0.0 -0.5809954517392769 2.5571110947730626 0.0
183 1 2.6377616713204803 5.694495126939485 0.0 1.9552984131081024 -8.320504762787658 0.0
184 1 7.487753879518645 7.94256880178538 0.0 -15.400330865099637 -9.440944972355746 0.0
185 1 5.360223001574501 16.770870923615934 0.0 11.633731363960715 -0.9104321637290835 0.0
186 1 15.66005336290364 2.9061405456573794 0.0 2.7863645602435207 -10.682901663531585 0.0
187 1 2.6766398443294417 0.7220961009306661 0.0 5.783480362463259 6.865463683160046 0.0
188 1 7.241571692336527 11.500021932595022 0.0 -16.368290221896324 8.337968746059 0.0
189 2 4.788465777861883 14.981572666380455 0.0 5.033868411544724 4.963253397251791 0.0
190 1 8.456244083907086 6.7934731019916015 0.0 19.32941417909854 -8.194721070286024 0.0
191 2 17.64155479700601 4.098618016948351 0.0 -0.5174140036655942 -0.80578998022124 0.0
192 2 13.328890672613786 14.541401536491753 0.0 5.316275166037892 -3.6472665762721554 0.0
193 1 3.2655237252999667 15.074901899310188 0.0 -4.514646954237951 -3.6301934235096387 0.0
194 1 10.09045566754262 10.561755814252589 0.0 3.229073106160317 -4.22739157097804 0.0
195 2 18.831077349945392 3.4048797914107243 0.0 -6.971202002180727 -4.040859831800316 0.0
196 1 14.518962956418113 5.8803161089334965 0.0 2.6323694388969248 7.143449333626631 0.0
197 1 0.732145506257505 12.414059746299724 0.0 11.81970152477852 3.8028767749838295 0.0
198 2 13.763472281474995 19.256942685208234 0.0 0.0843716735383275 1.2139852930402484 0.0
199 2 2.072397096789591 17.537870564443867 0.0 -7.902031379781641 -3.104748092158655 0.0
200 1 15.537374320035624 14.651000867896634 0.0 -11.76719389529368 1.3768118932387945 0.0
201 2 9.515913093291537 13.66722977913363 0.0 -5.147366710515626 6.410336747151858 0.0
202 2 1.6826797588372129 9.897904483751196 0.0 5.134867906269867 6.050723660193519 0.0
203 2 0.2565079531701026 15.353986592131948 0.0 -3.2886794660159406 -3.56219465717724 0.0
204 1 2.544153130641299 9.689521188242383 0.0 6.723431423432805 -2.718897874712598 0.0
205 2 16.044175143524807 6.3479205637147595 0.0 10.131566327351253 -5.033785019869368 0.0
206 1 2.7587906901206525 0.2274096218890971 0.0 5.609726583608436 7.596539024919049 0.0
207 1 10.491121336883896 19.25430286885185 0.0 11.418330905106513 2.996269406804711 0.0
208 2 4.354497582433939 4.060551324132893 0.0 -5.4812427790894915 -7.513818503686261 0.0
209 1 6.961370790459713 3.6905597950710427 0.0 9.665577723761292 0.06540159241404182 0.0
210 1 2.7434489023131072 6.156741216655872 0.0 -2.569692342912451 4.933557793277222 0.0
211 1 16.33370728639148 4.139996054936173 0.0 -2.4629875314380327 -1.2662603065579001 0.0
212 1 5.63541452151635 16.16999201373313 0.0 -9.928665347603738 -0.9382210263819358 0.0
213 2 4.905767521768837 12.94473486232422 0.0 -5.418244610967165 6.49617447156006 0.0
214 1 12.196957001923115 0.8035477711883295 0.0 8.688509044368638 14.867422264344418 0.0
215 1 9.879060697390385 3.1857923043735283 0.0 -0.6606533379579198 0.5005042035492696 0.0
216 1 2.778775685401018 2.8175116090948444 0.0 3.611384633772816 -2.0835729940731254 0.0
217 1 17.422467537298257 1.5161673713630048 0.0 -12.906512137032614 17.91618827581696 0.0
218 1 15.466231906203868 0.8078801595890098 0.0 -12.465337497304828 -0.40472640092747053 0.0
219 1 5.097467415126775 3.150468080729122 0.0 4.570933889747399 10.719490675377646 0.0
220 1 7.6065119765023335 17.962404483647543 0.0 -15.198733560289709 -5.531272438593907 0.0
221 2 14.322452924803395 13.067883376619767 0.0 -0.14279706320770097 -4.1087694286964 0.0
222 2 15.190700005762148 7.056477796296526 0.0 -6.7209313346934625 -2.6663573503485996 0.0
223 1 11.440797709666743 11.920135126562855 0.0 3.2324084742553847 8.733071245327578 0.0
224 1 19.019920171534547 13.949242083560858 0.0 10.322247574274702 4.4446490669607845 0.0
225 1 13.885162888576517 1.8771497136580602 0.0 -11.067948969861673 -7.880208193142063 0.0
226 1 4.312352347222385 5.584759697375519 0.0 -6.043389124248017 -1.155694882191056 0.0
227 1 4.1723603349611365 19.53571899667376 0.0 -10.107093888740787 -5.600968160476864 0.0
228 1 11.055996590702488 12.894070666921955 0.0 -12.088644686937577 15.528191208673496 0.0
229 2 1.6296337974292512 15.736179948888553 0.0 10.633162812963036 3.877646901646701 0.0
230 1 15.891796754981915 18.48987238386679 0.0 10.221959941781341 -0.10382216904381772 0.0
231 1 8.862965184944139 7.294583983450426 0.0 18.075864742957805 -3.2115805840465694 0.0
232 2 9.640836411812968 12.439549333190072 0.0 -9.225056868204636 -2.2814138689910304 0.0
233 2 9.662543852186849 1.603385724113878 0.0 6.828943347420333 -10.05265041688262 0.0
234 1 10.322859551682521 9.210974301960528 0.0 -2.041708250502918 2.9804390206161306 0.0
235 1 4.595769520758533 16.98465567559963 0.0 2.561021683078215 0.2983671452156521 0.0
236 1 14.240783950465485 3.4604966811866236 0.0 2.4705388057087174 -13.969680146144205 0.0
237 2 3.5182188900186357 3.8586104148020777 0.0 -6.786992747390113 -4.476465286742553 0.0
238 2 9.221384489197218 17.04122427418121 0.0 5.156618076953445 -7.890960390502827 0.0
239 1 3.701260321791549 13.050059058445866 0.0 9.431738993403757 -3.3127926398602776 0.0
240 1 4.43211153987646 2.399425117865604 0.0 -4.042503147810747 2.0526561805269568 0.0
241 1 6.423866224606602 18.76543070549203 0.0 15.06547316806786 -6.302067997639965 0.0
242 2 19.58976400472987 12.062322029952451 0.0 4.749135770588444 -1.6318138273839922 0.0
243 1 13.670128284217078 18.42245247513574 0.0 3.817654578776281 -1.467651888186019 0.0
244 2 14.663338070509782 17.566722622208882 0.0 4.673688663478976 1.0082478540623803 0.0
245 2 1.4189284546740593 16.64101111558788 0.0 -2.585620917192729 -2.47623215906438 0.0
246 2 10.197925389622899 17.05958312089866 0.0 -7.196736267114154 -4.280886788146208 0.0
247 1 0.10241595596584949 3.8540182581917026 0.0 10.718006549682242 -2.765205902426032 0.0
248 2 10.064445921848602 0.4610331518443202 0.0 2.9823261198159177 0.03816434768585266 0.0
249 2 1.6062769440159188 11.683551114849102 0.0 -3.9000610899143022 8.370350465516738 0.0
250 2 19.528722006467817 13.222634939891098 0.0 10.5035847234 1.6641436333287978 0.0
251 1 5.9281165725204525 5.060237311661886 0.0 -1.6779798528795828 -8.724533622797248 0.0
252 2 2.6782620149173697 4.224217527345759 0.0 1.836759811632554 -2.062561299621047 0.0
253 1 8.42599479762055 15.137030112708397 0.0 -6.559561513296517 -3.1399424151941973 0.0
254 1 1.5908081492286523 3.6635745629624026 0.0 -7.066023872859426 1.8776532975768396 0.0
255 1 5.570677369805265 18.815908181789847 0.0 -18.097016547959946 5.359285405651311 0.0
256 2 10.424639236659083 15.594144339532162 0.0 0.6032528552976268 -7.206369388972124 0.0
257 1 10.720240897203558 11.182319684059744 0.0 2.1816796465556996 9.436385594177027 0.0
258 2 19.565919931434735 19.634328275242186 0.0 3.7344726705201454 2.778652909272484 0.0
259 2 14.789954560611864 10.659472569947166 0.0 0.10409744140497124 -1.4215362190837408 0.0
260 2 7.723225979186529 5.61100485803456 0.0 2.1143382009047906 7.89789454766676 0.0
261 2 7.913702022051391 11.984085634069311 0.0 3.0430848762242744 4.323315925798384 0.0
262 1 16.033211565002944 10.805158266000221 0.0 1.8958013345300586 6.833145001455509 0.0
263 2 2.2179809864045508 10.652724606624444 0.0 -4.999095354002746 -2.8173180262870305 0.0
264 2 13.323340541014154 16.66154469448427 0.0 0.5837885312781017 4.72072186897916 0.0
265 1 2.774208034840855 13.211510683908466 0.0 -0.721949315538987 -2.638312288433496 0.0
266 2 14.8559103760888 15.527277091152003 0.0 13.538161615924164 0.5799872950175602 0.0
267 2 12.14448614844814 12.5521102596417 0.0 3.362206566088848 2.2977316713560594 0.0
268 1 3.211992626982421 3.127386281586386 0.0 7.527597002659741 14.844051143045059 0.0
269 2 6.869031130848121 0.4879334484343161 0.0 -4.724243162696069 -0.1516568823927574 0.0
270 2 14.913522924972396 16.57396768507472 0.0 -6.760615450320107 -2.6019129250303994 0.0
271 2 18.224333340907826 6.537977183423016 0.0 -5.482796160324609 -12.768352639365357 0.0
272 1 16.109244596974424 1.5387208759840234 0.0 -4.58194782885126 -2.1517248694942235 0.0
273 2 17.802146369635732 14.386891231239707 0.0 1.3798575302589549 -7.750941150465817 0.0
274 2 18.22816497514981 7.512022108161964 0.0 1.409802499494178 -1.594601371866374 0.0
275 1 6.912485974970978 7.995359271054457 0.0 -11.864366237430437 -5.462909401886245 0.0
276 1 3.2763639688468147 2.6218777895774177 0.0 -10.39771968738177 -5.938914977741154 0.0
277 1 12.345550362760632 13.757039707782283 0.0 -7.658900740949079 -6.238661402277517 0.0
278 2 0.997329836623344 14.88054108472312 0.0 7.350904760938224 -10.390047872410381 0.0
279 1 18.002602215183277 2.660751009859371 0.0 -5.3606976968812665 -2.196260012606777 0.0
280 2 11.956135499574842 14.927501643202119 0.0 2.3809467882784925 8.53371837346208 0.0
281 2 2.8418464572867523 7.464473949123087 0.0 6.401405199778028 1.8719939412932336 0.0
282 1 1.0113518977434033 8.704288559566786 0.0 12.31212889922312 1.6026610106071546 0.0
283 2 5.7100588844902065 0.15756545491147214 0.0 -4.2855740997335525 6.229387003078985 0.0
284 2 14.987200390538206 9.062750824528589 0.0 1.2617392240857028 7.7119819010483965 0.0
285 2 15.611510241465083 17.707610551372092 0.0 6.725282710876598 4.843655581065629 0.0
286 2 12.315279046390618 19.562922687179856 0.0 -12.969941448268422 -2.5046556218155676 0.0
287 1 3.5987740852356263 12.26493860271565 0.0 -0.09384313538708504 5.610250834277962 0.0
288 1 13.399826708399766 8.790128666556846 0.0 -3.621504014532659 -5.901574504235808 0.0
289 1 14.90173513508047 0.6553292021450693 0.0 -6.680778979789381 -5.049294623995244 0.0
290 1 11.327306425142934 2.629988666735366 0.0 -11.72796705640092 -3.942948547176343 0.0
291 1 15.72894333200404 2.2096462428997907 0.0 7.455362846507954 1.000127053444317 0.0
292 2 1.6384162314638444 5.804982260026832 0.0 -5.728640938289982 -3.019374895248132 0.0
293 1 14.10313418585663 8.566094290931265 0.0 -1.8394866119098015 -7.535312217256775 0.0
294 1 2.9548879960685714 13.655281944688026 0.0 14.771108164873175 4.140158825638391 0.0
295 1 2.101745946538241 1.9122867727166388 0.0 -3.7626908826731444 -2.5560749615772385 0.0
296 1 13.192759035743181 10.895443888609558 0.0 0.24631301238771855 1.981319649664816 0.0
297 1 4.118349438061671 17.144561736188873 0.0 -11.048307808167998 -4.408393916084959 0.0
298 1 6.877820485127602 7.150518878686812 0.0 -2.758579962292902 -6.640109441525626 0.0
299 2 6.198087727689739 11.95737021807811 0.0 -3.8456288602053967 -5.7023804102714175 0.0
300 2 17.469991244850927 16.50710243979682 0.0 3.604010093276604 -9.040668211171734 0.0
301 2 17.199478445359627 8.053949664710283 0.0 2.0415652152393045 0.40285249088680064 0.0
302 2 19.0704828621011 9.206522835952356 0.0 -3.2746261444666187 -3.9798792911649503 0.0
303 2 1.5957305693495498 7.775196871791577 0.0 -0.869223875370026 2.904362954951411 0.0
304 2 5.938420505062148 7.93343845907522 0.0 -4.576708886540636 9.787116865238488 0.0
305 2 14.070570680859275 11.5828391517144 0.0 1.7287848883834998 9.046579234823396 0.0
306 2 14.243723516968831 14.405204917132856 0.0 -0.8910567865138683 3.8989268317389896 0.0
307 2 0.29275875359146997 1.5631029644892709 0.0 10.87227370473246 1.5237334494964565 0.0
308 1 0.6172329905980085 10.196139515168 0.0 0.7810859655987142 4.947990307907225 0.0
309 2 15.313065134185722 11.832552737510541 0.0 -1.5798943242992445 1.513575698495702 0.0
310 1 5.212269998556034 11.967923840029574 0.0 4.914821953971044 -15.010863550989832 0.0
311 2 17.022330761566298 9.987609099366248 0.0 -10.680153470628237 -2.218018821063167 0.0
312 1 6.6999780424479125 4.889238828971238 0.0 -3.981768894003076 -3.6810412961266468 0.0
313 1 12.989826332329214 13.572503496392526 0.0 6.305432502435931 7.4098969288711505 0.0
314 2 18.349618537400655 13.652924897715497 0.0 8.678186148473921 4.65030387806914 0.0
315 2 0.8823154342782695 17.290141869045367 0.0 -4.964796503670926 -9.942452042825916 0.0
316 1 11.467336718071278 0.9388423306303634 0.0 -2.2867297581408548 -3.799297242558535 0.0
317 2 10.454137540169064 13.219877579780386 0.0 -5.2200544664059265 0.4632014097881006 0.0
318 2 12.639197058426298 4.027919354217934 0.0 2.2822161261712672 7.095194228901621 0.0
319 1 6.161430033623662 5.662096998303033 0.0 -5.173097693619422 -14.002065127797666 0.0
320 2 0.4727895444026636 7.984143756343626 0.0 -2.508153855000971 2.0459589653191785 0.0
321 1 5.618668912705777 5.436713461046908 0.0 -8.228983376029515 5.914165015479865 0.0
322 1 10.942873243278028 16.451495278914994 0.0 -1.8195872895453664 -0.582044553317315 0.0
323 1 18.29053263917046 10.907447202068791 0.0 -10.158306948959813 -0.7238640047700361 0.0
324 2 3.4968778840815 0.7885921741546432 0.0 -0.7603116450185574 -1.7273496145157443 0.0
325 1 8.873040800284404 2.2226200805862706 0.0 6.173514070866405 -9.522258699972307 0.0
326 1 0.2544615200698432 9.664191018598249 0.0 3.151110178857495 -1.5427497764104898 0.0
327 2 16.41203993735558 17.260397193048963 0.0 8.449759720176568 5.367489992718445 0.0
328 1 9.588359169400693 9.475117272632353 0.0 -8.170428819417214 -0.674959024813188 0.0
329 1 14.175572713312997 16.501618366513892 0.0 -17.008707267112033 3.709622605780227 0.0
330 2 12.529628294107884 7.3050876469016055 0.0 -4.700595202384281 -4.426941208407447 0.0
331 2 11.139972651206 0.19835017472111063 0.0 -12.192362701015407 8.619463700143106 0.0
332 2 0.3353767071125571 5.398805562077626 0.0 9.53957108066908 2.784078600160465 0.0
333 1 12.035612772544866 16.017700345729644 0.0 -8.408909076401528 0.668255732379371 0.0
334 1 4.210974218656675 11.04158661845656 0.0 -15.451476658864916 12.237644746030583 0.0
335 1 4.984232895456712 13.717539332151725 0.0 4.561768807198564 0.7587028737726 0.0
336 1 10.940493917474724 1.8718374354452836 0.0 -0.9432457748243696 -9.37795053660296 0.0