ITEM: TIMESTEP
0
ITEM: NUMBER OF ATOMS
400
ITEM: BOX BOUNDS xy xz yz pp pp pp
0.0 19.7609 0.0
0.0 19.7609 0.0
0.0 10.0 0.0
ITEM: ATOMS id type x y z vx vy vz
1 1 6.452776068758009 19.169422882824676 0.0 -12.937818096481159 6.61568222186369 0.0
2 2 1.1870788386879627 0.3924016164570216 0.0 1.2843506714618889 1.9073725274485627 0.0
3 1 16.648309610049267 10.459746679639132 0.0 -12.404786626905809 7.663341267104665 0.0
4 1 14.957248037119538 14.549221054058133 0.0 -11.782932918111461 12.909472386911057 0.0
5 1 16.864809868629134 4.8628723477545535 0.0 -5.961720268413986 -8.498464881405235 0.0
6 2 6.059755176585972 9.888614758938335 0.0 -6.1922308437368 -2.7898116203894947 0.0
7 2 19.440208139027845 14.782712975054995 0.0 6.092410124223831 8.85417761518745 0.0
8 1 3.6054169679946484 6.795371936452549 0.0 -0.629303838207668 -2.975118421853828 0.0
9 2 12.144616843585139 18.206457376778626 0.0 0.28910902036367614 7.138618335196664 0.0
10 1 19.230093366546512 1.0771726087396247 0.0 -11.307593456714711 -0.2890456609076893 0.0
11 2 11.348987041483541 11.783656249187406 0.0 -6.473333556078665 -2.0937770779549623 0.0
12 1 6.2220948403499525 13.120842401017118 0.0 15.544312853654462 -2.742363452676168 0.0
13 2 19.670400026885652 7.872638330663875 0.0 3.427657109972581 17.549328121777272 0.0
14 2 9.957547509855173 11.388109318691074 0.0 -12.587896734419285 -8.965109618743138 0.0
15 2 18.47024728632414 6.478494978200182 0.0 -4.612782135163393 -8.956741230552964 0.0
16 1 4.486991698800038 5.864437344315995 0.0 0.062463883506286316 -16.816070537758748 0.0
17 1 1.8564639938974226 13.647769892304078 0.0 -3.743133368578888 -0.843104247056805 0.0
18 2 10.782109000548624 19.285979630103313 0.0 2.004974473538369 1.8125098686608292 0.0
19 1 0.20037159457282563 0.09313492520940889 0.0 3.1456118661025543 -19.328213203966506 0.0
20 1 2.4693323394676647 19.288421943084945 0.0 -1.1109865614597887 -7.391249952165957 0.0
21 1 3.074087345843302 12.749822955457164 0.0 3.955662628803614 -13.608439290308821 0.0
22 2 16.827448058880968 2.581619958561772 0.0 -2.145418358260238 5.533337226475164 0.0
23 1 14.707008536068555 6.868919705064138 0.0 -4.071744673971046 -3.7877636056498143 0.0
24 1 13.517937525238514 3.685292602386252 0.0 -1.1028097889544668 9.691210874474349 0.0
25 1 6.678268071375021 8.325515732568102 0.0 -10.29828039772782 6.897187013691851 0.0
26 1 13.682890470732364 8.094780802291606 0.0 3.0413491158266077 -5.975186932836683 0.0
27 1 6.997614946105035 19.022996549951845 0.0 5.104444939646229 0.983194666835561 0.0
28 1 8.695232689126973 16.188621502403162 0.0 1.41065491224198 -3.711354006014213 0.0
29 2 3.6546456355649206 13.648003575492675 0.0 -2.0013099939414527 7.064812771665236 0.0
30 1 16.98454851153603 12.084703394588844 0.0 -7.118128322699567 15.509855173434035 0.0
31 1 4.379702301034881 4.199391884880616 0.0 -8.764062371530924 12.435199887605515 0.0
32 2 4.128094140429189 2.5173987308981647 0.0 -4.638723877847448 3.790583736076114 0.0
33 1 1.7015360033616451 19.528957808317372 0.0 -14.949037096309038 -6.199129555176435 0.0
34 1 12.657196247203855 13.560875978192584 0.0 -8.955834767389883 4.727651453871886 0.0
35 1 4.765783149373352 4.744615885318457 0.0 -4.23893370729289 4.423616810160641 0.0
36 2 2.6118028752612483 8.339604366110203 0.0 -2.9912637708019694 -4.4512363690721415 0.0
37 1 3.5252617432776057 17.25298167071256 0.0 8.855375085261853 3.340243309115601 0.0
38 2 19.184470819427773 8.550500209251158 0.0 6.4297474766818565 -0.2892113201005142 0.0
39 2 2.1276017324648313 0.6324538988303757 0.0 -1.8868639264093934 -2.1231077287097495 0.0
40 1 2.711044752470856 18.62239716439536 0.0 -4.674595311289263 5.9556844710788415 0.0
41 2 1.0837450278296648 11.57145953216427 0.0 7.611153240267928 4.798317476219807 0.0
42 1 0.285422397591872 9.807194126766866 0.0 12.71812139118884 -10.387285864748673 0.0
43 1 14.519179583321948 15.861798956246542 0.0 3.2041096406942784 -2.3110244712068857 0.0
44 2 6.134714449003801 17.242371500807742 0.0 -1.8390779682140743 -2.8889189689300308 0.0
45 1 7.330342778293167 12.905308024998948 0.0 -2.2106686536177222 0.9195083534797981 0.0
46 1 7.083486807369193 8.951554137449707 0.0 13.624920202742711 11.40663618107905 0.0
47 2 3.1961028123758686 0.08228150562381874 0.0 -3.111740899225782 -2.5575847620472203 0.0
48 2 12.929677870957098 4.733115129795959 0.0 1.877647321537342 -3.2934800510338635 0.0
49 1 0.09971327857064169 1.9405152814970625 0.0 -1.0534905383922184 -13.895040490528825 0.0
50 2 15.623707155032678 13.076158373106836 0.0 -8.715908405241246 -10.346288901397722 0.0
51 1 11.808955415582734 9.711225130550526 0.0 -9.807131499369468 0.5595531989677311 0.0
52 2 17.907212179374245 10.793496383792057 0.0 0.8020463608546576 -6.452440701491867 0.0
53 2 19.757019215059824 12.809648895856535 0.0 -1.7990681891794063 -0.866446445882273 0.0
54 1 18.714724921092653 7.3621924990588035 0.0 -5.497724919849294 -14.807339164916987 0.0
55 1 5.460573800062447 6.698573091893298 0.0 -0.45886569011952616 8.158412332448787 0.0
56 1 3.02741432681555 14.704983258787744 0.0 12.537523650193572 7.513579757891647 0.0
57 1 1.5407080192575884 8.322474228556308 0.0 -6.149327098014531 -0.8038398163967205 0.0
58 2 15.127218289043388 15.395392832669017 0.0 17.063427353612905 -7.002704820517939 0.0
59 2 2.8792605047804463 10.798683308172013 0.0 5.013430467458052 -8.176681447100892 0.0
60 1 10.637680335188703 4.367280358107575 0.0 9.769585988063806 10.409979259754776 0.0
61 2 6.623584019134209 18.253329849024375 0.0 -6.747962881579519 -10.864742562521698 0.0
62 1 17.76259786968864 12.574970950787248 0.0 1.7817620451779603 5.314940437494217 0.0
63 1 15.776532151462693 18.4545308934645 0.0 3.628111111860488 4.20445737245954 0.0
64 2 0.6295799851674737 19.079608437678964 0.0 -9.845371116317947 -8.086336343418944 0.0
65 1 11.347509002070717 6.387354632413721 0.0 -2.193649189688873 9.018197642057466 0.0
66 2 7.989759943209428 2.4622914951468147 0.0 1.7224607744721765 4.063899063835189 0.0
67 1 5.0284182150171475 4.114792989735428 0.0 1.4127618087914806 -4.415921320585104 0.0
68 2 8.377756992531058 6.174974871362217 0.0 6.302090866776834 -5.477114662241386 0.0
69 2 10.276933752896955 13.448451000375334 0.0 -3.802541892505052 -2.9666366384769836 0.0
70 1 15.065786099526985 10.766689008629431 0.0 13.032848175009637 15.489778731955493 0.0
71 1 14.43559478172175 6.422489182584426 0.0 4.133093928710421 4.413089833455817 0.0
72 1 16.186996356470768 13.565760552767914 0.0 -8.776527031815352 17.40120798132529 0.0
73 1 18.763876423333887 1.6176084879238883 0.0 -7.424489503136354 -11.460001441251409 0.0
74 1 8.431352455067408 0.24906678921628764 0.0 -0.9356755887737013 -7.080141527198265 0.0
75 2 14.27976027560675 0.39591214696085764 0.0 -2.7724131615908956 1.3500620985536773 0.0
76 1 0.2928424053883908 17.182915430346807 0.0 6.596412391690214 -12.129468184363553 0.0
77 1 17.976824091866938 14.288709010244942 0.0 -11.18030101579255 17.051263454572677 0.0
78 2 3.3395461799549158 9.025227184162098 0.0 0.015232724376741847 -0.42055503035403996 0.0
79 1 7.952007937230835 19.284227036903587 0.0 15.536305637578126 -4.091237056537556 0.0
80 2 7.959175396369571 12.090200363574098 0.0 3.9007760291914098 8.552688595806938 0.0
81 1 0.7798248305417819 16.30211824977488 0.0 16.943544101519887 -4.817987187847403 0.0
82 2 17.6715416687264 1.997339424515017 0.0 -3.534397981008024 -1.7589887308585341 0.0
83 1 9.81494451831468 2.301122170134279 0.0 22.459106838089923 -5.702640827910163 0.0
84 2 16.128861035686235 11.871884518663988 0.0 5.585509099381921 4.881896539944244 0.0
85 1 8.22851650029048 4.923199566491207 0.0 8.096816008234441 -7.377978083036664 0.0
86 1 19.076094223443572 3.2588837266554536 0.0 -27.229314315075676 -13.76020598185009 0.0
87 1 16.314997777092923 0.6018840955335919 0.0 -12.694648768718869 7.544296731178069 0.0
88 2 7.442900364662894 3.172983554177173 0.0 -3.251760397802122 -4.633875899123948 0.0
89 1 13.100520879190496 1.0513458192549932 0.0 6.288154395080124 19.03622341918572 0.0
90 2 8.242116003876392 8.180211819932007 0.0 3.6278218771406356 8.191911033900904 0.0
91 2 2.227337452259164 7.478855181495507 0.0 8.632155357523871 -4.983562901312318 0.0
92 1 13.44985066861641 6.340118070133887 0.0 4.554557132449388 0.859531183195485 0.0
93 1 11.36811372345957 0.46414905759336716 0.0 4.234592845440015 -6.364560571827292 0.0
94 1 14.11736395666745 7.600286469481318 0.0 -3.2040116529888385 5.553749086322003 0.0
95 2 13.845138086007962 19.23534605159535 0.0 13.091964130166756 0.48624088347754285 0.0
96 2 4.261132686145226 16.286048085956622 0.0 6.6979874769889705 -2.8346228494202306 0.0
97 1 8.62945497493931 18.732725233460517 0.0 -6.05618832793443 12.688984333595739 0.0
98 2 13.582182569258507 11.819708331108014 0.0 3.8382818851441076 -12.71025162916913 0.0
99 1 8.314804349031942 4.367426194681901 0.0 0.09277728529518003 -8.428406209946719 0.0
100 1 11.407019323000608 7.092904899480503 0.0 -3.7683788574408688 1.3795482201088656 0.0
101 1 2.99060263063642 0.9386745185353407 0.0 2.472295010326395 -0.5673807680589738 0.0
102 1 8.67887010889297 12.802972517019738 0.0 -5.171649935989836 -0.20228506206228905 0.0
103 1 6.967102647849632 12.542058418840966 0.0 -12.001746041556464 4.339008282120671 0.0
104 2 14.648888689897067 8.145217386389824 0.0 -1.3403130615693815 14.342422168900713 0.0
105 1 6.7631267260831915 10.882014518551554 0.0 -6.977881620071053 4.336834204834048 0.0
106 1 12.002573460725113 0.5605261174169631 0.0 3.1424921521503877 -7.578028725634455 0.0
107 1 0.7531744331021316 9.237038997118672 0.0 0.9252047814962051 7.405597260311736 0.0
108 2 7.181705214334605 1.8686233420283582 0.0 -3.045002768005865 10.265727316142154 0.0
109 1 19.512547552616464 2.5584589624766 0.0 7.1989383402944656 -2.0097850704166027 0.0
110 2 0.8458522114315691 6.674752747358372 0.0 -6.704365888944963 2.752520655632 0.0
111 1 6.051537318674797 8.73002423918205 0.0 -5.335745371162892 10.413840376481993 0.0
112 1 5.556892358299698 15.00816913038975 0.0 -0.7911663090057295 6.423955841980235 0.0
113 1 1.3139502966709584 7.901056185528183 0.0 -8.50214580249996 -11.342887036267982 0.0
114 1 14.396163352034863 12.585777378917108 0.0 1.131254584680667 4.34814073696523 0.0
115 1 18.29760859187976 11.609101178337594 0.0 -13.16675947070787 3.44524389171762 0.0
116 2 3.2274152172688417 18.06789511571689 0.0 -5.152445285225778 4.035149582119778 0.0
117 2 3.267006754476636 16.273396790759254 0.0 -5.975687555387327 -4.353591522003366 0.0
118 1 3.8750275669442913 3.8122168224604187 0.0 -9.9139916708216 4.86928696451306 0.0
119 1 15.22598600143317 14.232720835267093 0.0 4.28928251621258 -7.699050914987899 0.0
120 2 4.580137668442189 11.947519533146842 0.0 8.271034344186402 7.307608237781304 0.0
121 2 13.989725500466843 18.121152597959696 0.0 -2.3157697458927275 -3.048913963897724 0.0
122 1 7.156776180501853 11.746321368353094 0.0 -2.0749121046738095 -7.682965503984552 0.0
123 2 0.7574278248636547 1.2405857499780415 0.0 -2.090072362583527 6.208842010010809 0.0
124 2 1.5568668292199979 4.720899580928993 0.0 0.5538308088525767 -7.473903035402922 0.0
125 2 16.36190106950014 15.02785138221625 0.0 -0.787277638488839 -0.1938074153195693 0.0
126 2 10.017295710837244 18.770114957219832 0.0 -1.820556102438579 -2.992691224275723 0.0
127 2 8.051079000669274 15.758308194785005 0.0 -13.789298931713077 2.0119477854994128 0.0
128 2 3.6380459715001785 19.111560774328275 0.0 -4.454577575692975 -1.5074831314520198 0.0
129 2 13.938628628097486 4.783568290488224 0.0 10.515376126551075 -2.2246335680415554 0.0
130 1 10.338347934528773 5.640492786618641 0.0 -3.560384612516863 -7.761312917754381 0.0
131 1 15.27369795403457 18.04189951597506 0.0 8.055708907801149 10.330522845535892 0.0
132 1 12.059923578338166 8.882164833436967 0.0 6.781085279789547 -2.6009085839529544 0.0
133 2 9.009812969803438 14.872677351275364 0.0 -2.365447859597541 -7.058728365809657 0.0
134 2 13.058846257213728 9.009733000282045 0.0 -1.7333192529941381 0.09225225819341377 0.0
135 2 15.307787792784291 7.561466620338892 0.0 2.1006726491416834 -5.315344585809004 0.0
136 1 13.599478703589195 13.61956532786039 0.0 14.994976758660533 2.815046915091595 0.0
137 2 4.474527302671774 15.155750235695765 0.0 10.739481097920665 3.8828386890513555 0.0
138 1 13.642625503702536 1.6917895189938097 0.0 -6.9283396420063825 -7.500061917202275 0.0
139 1 11.689677939516145 2.6810233463627613 0.0 -0.3967047013982612 -0.5015496280249226 0.0
140 2 17.543171248293348 5.727382488753927 0.0 4.776098043838003 -0.7831393296398032 0.0
141 2 13.001676607849692 18.58897969087569 0.0 5.1313372646152455 1.2394812016232075 0.0
142 2 2.139604611329562 10.059443679697315 0.0 -10.21866394605571 5.856089473486704 0.0
143 1 8.889814035975983 12.393674223030489 0.0 -11.905434599781652 12.203317850021895 0.0
144 1 2.4097026822110084 6.422418443967834 0.0 -6.270103478541862 2.219649327681627 0.0
145 1 10.751349517094424 6.225929129306237 0.0 -12.142749582097006 -21.70991077291761 0.0
146 2 12.39344829708388 11.737775879124072 0.0 -3.279483894295594 -2.652184969041604 0.0
147 2 17.795197798312486 0.5912765253686275 0.0 -5.726084562477979 -4.421164009664071 0.0
148 2 12.40044644134332 15.917831333924475 0.0 1.9772415246325459 -2.950860385257877 0.0
149 2 16.061888099587556 6.970308393000413 0.0 -1.7543951613626831 5.206555593975512 0.0
150 2 14.71074995820486 5.423675518419856 0.0 15.477937812995231 -6.224620412363714 0.0
151 2 12.669355730306023 6.0676909435199 0.0 -2.561764584570968 20.225818687286544 0.0
152 1 7.355548376777482 11.038169640640366 0.0 -2.0628693150097956 -4.753594232747465 0.0
153 2 3.1978691009697235 6.100089981847618 0.0 6.239858931786634 4.268309457488067 0.0
154 2 2.1271765725255247 2.516939370946204 0.0 10.857492350890713 4.658845458577088 0.0
155 1 11.357106254694552 4.361727270631688 0.0 -9.568890246026271 7.0368068203140535 0.0
156 1 9.280328979765994 2.9358514098354536 0.0 6.173199988005649 11.329703507596063 0.0
157 2 7.236389086660556 6.195741676334976 0.0 -2.3746304460624317 6.653141723233801 0.0
158 2 18.9559379096518 13.743492723565872 0.0 -0.6583958882833761 8.366369781284908 0.0
159 1 15.619020913038394 10.34090363743469 0.0 13.779767085875628 -7.835775904328326 0.0
160 1 17.538839475958948 17.167846652425876 0.0 6.955791869061111 8.312204832911696 0.0
161 2 1.305238715461179 12.969100809401217 0.0 -1.3052925492735483 1.6798895677857122 0.0
162 1 0.6895872158265 7.531959059982872 0.0 4.001190944500327 -2.2230888804830378 0.0
163 2 14.453756639876469 10.246428410754467 0.0 6.452715349704701 2.465554214804813 0.0
164 1 18.3631203961282 5.6837138680803605 0.0 10.22444789166636 9.171313813587263 0.0
165 2 10.2173469119233 14.906909463181155 0.0 -6.291544345384505 1.641563890030725 0.0
166 1 3.3774563186488264 1.3942041923890012 0.0 12.673300592821223 -5.730484311857958 0.0
167 2 1.4932417906748021 18.59528366155419 0.0 -5.60568993768302 1.0380233770962561 0.0
168 1 9.665096914258163 0.44807381012717656 0.0 8.861172192031598 3.939110046286734 0.0
169 1 9.148810510922925 5.667595551089586 0.0 -1.51418827268051 0.5633268162248412 0.0
170 1 8.900828031627308 19.559192705470927 0.0 1.243210913526946 -18.48242557549803 0.0
171 1 12.993435975559294 11.119807227676448 0.0 20.04199938540464 12.00506063655954 0.0
172 1 1.3919648566517908 9.59575459625746 0.0 3.6201144817725157 16.249096006521697 0.0
173 2 13.193704255614373 17.72269252770758 0.0 -5.683187840821852 12.215779866243896 0.0
174 1 11.513238295003697 15.938889050357457 0.0 14.863390270466756 -6.534849510683211 0.0
175 2 10.402689706813689 7.030364242070929 0.0 0.7249795121183025 -8.155741617027642 0.0
176 2 10.118294314956895 8.063148460363776 0.0 1.349977982491683 6.7666974755367955 0.0
177 1 13.538522248668027 5.589211048934212 0.0 -7.330250023869225 -5.3409622155911 0.0
178 1 6.598460336215797 14.612961087598796 0.0 15.312088111073303 6.843428006492935 0.0
179 2 0.47324098050616603 3.744018736878558 0.0 6.874182063595033 4.271809783315611 0.0
180 2 9.020633234637073 4.060699729608562 0.0 0.05661888218928887 14.768876744978552 0.0
181 1 4.878510219642541 1.5423991624886635 0.0 15.187050907891663 -6.603818072217444 0.0
182 2 7.376444687508726 7.317292796991047 0.0 0.25881774595560975 -11.334711355359127 0.0
183 1 11.589869731885535 1.3425712917359847 0.0 -10.50337775514548 -5.186634923313307 0.0
184 1 12.76904843247934 0.5784557199389699 0.0 0.3514582807970889 -3.055200928018107 0.0
185 1 13.31275766968156 14.06592563430912 0.0 -2.156028635951763 -0.2687025740094105 0.0
186 1 0.0688086146963467 3.009552571972191 0.0 1.824063495801467 9.30198531579693 0.0
187 1 0.4423772149318445 13.775051654751552 0.0 -2.017371628191443 -8.220712527513022 0.0
188 1 7.558116664878529 4.150469504933181 0.0 -13.101116803595378 1.3626630322865583 0.0
189 2 16.837839936831354 1.4412253456320452 0.0 4.985992496843794 7.110930808871836 0.0
190 1 9.457381413365933 19.292953881549725 0.0 -10.01062292576443 -2.5309096568405325 0.0
191 2 19.26726947925396 10.970757143434744 0.0 -2.3045458159471894 5.417962803829906 0.0
192 2 14.953114517918763 11.674730031623687 0.0 2.835966415299199 1.7561171907957476 0.0
193 1 17.65082113542997 11.901101473260725 0.0 -9.778567572347994 1.5001432161724602 0.0
194 1 15.841637982183695 0.37912105060310963 0.0 9.734033118480694 -13.676949806643181 0.0
195 2 5.768956219388124 11.14220565438904 0.0 3.987580403003055 2.299413666689932 0.0
196 1 10.996829523660768 8.155350015888892 0.0 -1.0979733451974707 0.3464896041080428 0.0
197 1 10.230593591731049 0.40816453252000645 0.0 3.292147033149876 5.553955942119822 0.0
198 2 15.055655076750972 17.189700702486494 0.0 -9.853706971510837 -6.011268472258462 0.0
199 2 2.457846275415445 15.323732059532986 0.0 -1.8269325899574376 -4.257617355437817 0.0
200 1 16.821360581934936 7.2101759130048535 0.0 -0.4906365421327887 -6.848840190942199 0.0
201 2 17.644183049354037 7.4694118372767075 0.0 11.942647847711855 -6.784969217280137 0.0
202 2 12.159807471932012 1.8564973991453317 0.0 4.843969318891929 5.324740025808254 0.0
203 2 4.555731550986616 8.375756452238802 0.0 4.174510541660958 -4.701887632438689 0.0
204 1 13.79357736791727 1.0379919268166924 0.0 -1.981098388572152 8.231729468518202 0.0
205 2 15.166270098953014 6.133928125336601 0.0 -5.03797074366981 -14.286762284958881 0.0
206 1 13.972441492782767 6.98509398085387 0.0 11.854238998804574 5.448420144091257 0.0
207 1 11.447480637960153 14.596335530481852 0.0 2.8400921485815727 -6.068308101878445 0.0
208 2 17.65765066492643 3.5625403511458833 0.0 2.4311496532861896 -6.0956604935877845 0.0
209 1 15.767728373093274 19.456447910210244 0.0 4.168807703847541 1.6540088061108804 0.0
210 1 16.511505075821837 14.143351172080745 0.0 8.783968678928797 10.634856386735082 0.0
211 1 16.170706844600705 9.012463176324893 0.0 11.415045457551132 0.20631416968648375 0.0
212 1 11.114961083725774 5.602602773720921 0.0 20.053014944660973 -13.507902786429531 0.0
213 2 11.73261707950982 19.17920131793999 0.0 0.9507025260210406 -0.6762367095933427 0.0
214 1 3.730067892890025 9.703696476212642 0.0 -0.24426313427088012 -7.665503754493856 0.0
215 1 9.995392440360094 3.123671192679598 0.0 14.548680885773548 19.90477886274446 0.0
216 1 14.290932847842239 3.7522978471594164 0.0 0.6260691793095079 -4.668398476885777 0.0
217 1 9.549209853611895 4.798729297074659 0.0 -21.705467039847342 0.25838265245194353 0.0
218 1 10.13322234158702 4.429945910835104 0.0 4.947292460329307 -10.00757392086865 0.0
219 1 0.27863942080341647 16.61595999675925 0.0 -1.4678254711136407 -8.26877497353063 0.0
220 1 2.649766223657625 3.256863218658567 0.0 10.620305626620352 5.991965065045435 0.0
221 2 10.629973101639642 1.7675155074459603 0.0 -0.08848264206023003 -0.11380794586495883 0.0
222 2 10.640688713927423 9.397778549838907 0.0 1.466580723881662 5.832766695690414 0.0
223 1 17.13887848745851 12.766153610938986 0.0 5.640963169811831 6.556661025979375 0.0
224 1 8.603176060463937 9.984137653515434 0.0 -15.742098643939547 17.786884374352223 0.0
225 1 10.766297177121091 14.238854067750005 0.0 -5.513725606890065 0.5433516952001376 0.0
226 1 9.835160390900812 1.36432952569182 0.0 3.951927193766779 6.5922062262219026 0.0
227 1 3.1126723456868457 7.496209832697279 0.0 -12.202803141922569 -0.7994190357363976 0.0
228 1 13.238781882809693 2.75370447075086 0.0 -1.773637986577894 -2.2177079051928805 0.0
229 2 18.508351752606856 2.4877910729191934 0.0 5.451981170275999 7.789608499687191 0.0
230 1 0.4362584220763296 12.01720679832124 0.0 -0.4652690248030221 1.519157491174804 0.0
231 1 6.520540998447409 12.438804331527301 0.0 -10.249062277651078 -8.501278466679782 0.0
232 2 18.76715852374959 10.154007924991893 0.0 2.0722066443838543 0.9390475773521952 0.0
233 2 0.7098924471338407 5.256427034472393 0.0 -0.007095580250083256 3.2612696578327114 0.0
234 1 8.018869321103603 6.8415565944184795 0.0 -1.9008643566784995 1.2029479579685407 0.0
235 1 11.524464424167698 13.461062226094937 0.0 -2.6652934955197822 6.087932425431083 0.0
236 1 6.879896046694353 15.14253313970933 0.0 2.2906272172888014 -5.4047684070539175 0.0
237 2 5.011703415596594 9.243271679870913 0.0 -1.743775142220018 1.259987713153349 0.0
238 2 16.178160744865497 16.548929337328634 0.0 0.7551284748696875 -4.4176165490314885 0.0
239 1 11.542002252540827 9.022173588515207 0.0 -5.013562209185769 -6.132053797330691 0.0
240 1 4.329853689417718 17.158870647086943 0.0 -15.80440160719968 14.347769493270425 0.0
241 1 2.1081193226177293 3.5120642895425607 0.0 19.220201667460643 -3.478308515664832 0.0
242 2 4.461187901053106 10.07110351269554 0.0 -13.218846505745159 2.361876374699002 0.0
243 1 8.13910216386282 13.041909246084096 0.0 0.191016808221 -2.2208233489606606 0.0
244 2 7.57253636190775 14.34543488113394 0.0 -2.478878201253803 -1.4116898884559188 0.0
245 2 6.982507147397129 17.076211474068252 0.0 9.735020963373042 2.0703091587264457 0.0
246 2 18.16981745055291 18.5012639049293 0.0 -8.264359482410985 -10.215971133242295 0.0
247 1 13.148964643728759 16.073176141768034 0.0 -7.867427609505381 8.541353931385837 0.0
248 2 0.4009780373085285 11.091246551208656 0.0 8.467260251651675 -4.274401919817495 0.0
249 2 5.247557624570864 5.420908470563917 0.0 1.1316526560292204 -5.768468526062218 0.0
250 2 13.87229746306787 16.946003848653326 0.0 4.296334727153598 1.4375503154502849 0.0
251 1 15.605127268668731 11.19530207956643 0.0 0.797028920507571 4.446081498463995 0.0
252 2 3.79257990001926 0.735521875954391 0.0 5.418418679531386 -7.854930251459013 0.0
253 1 17.700969070998664 13.532328671946807 0.0 9.50041913325905 -3.4343427671201474 0.0
254 1 10.28468075688781 17.257190310941862 0.0 6.889509171535503 1.0604754758878334 0.0
255 1 9.087385921989087 0.2109529186917981 0.0 -1.8362802062454155 -13.77254601798041 0.0
256 2 13.39916884109204 14.956841104574778 0.0 -12.02662867288139 -4.560150228664762 0.0
257 1 13.252885150475729 6.759825041817216 0.0 -2.828072534263029 13.98369133177815 0.0
258 2 8.476579115564649 14.01480281307398 0.0 2.083081156429763 -4.469901874601814 0.0
259 2 19.19232104734577 11.841695280978131 0.0 -5.092387189630964 0.2729908471453272 0.0
260 2 8.350668882199306 3.2255216873539165 0.0 3.0086653698728947 9.63072328722915 0.0
261 2 7.883998651395758 9.36269629635104 0.0 -6.2046166945848995 0.30909865275836707 0.0
262 1 1.4869945308828325 9.10038086038643 0.0 1.0519897052434466 -4.597582275347292 0.0
263 2 11.631377614270058 16.781242588457374 0.0 8.760512154972284 -0.981241463139165 0.0
264 2 2.606240268507257 5.476354448361659 0.0 0.1102091569754769 -3.2841154314997776 0.0
265 1 15.81177843030662 17.752314313823636 0.0 7.460075510873824 -4.410085527968962 0.0
266 2 6.318037310239494 6.37538163539226 0.0 -0.17585462498648882 -7.216061001409322 0.0
267 2 14.421153714046326 2.6907561226409213 0.0 -4.068583468221909 -3.618424590168234 0.0
268 1 6.177229332947907 1.3527359139008424 0.0 11.623242858162435 0.8106430760671562 0.0
269 2 6.340085834790795 2.617746490054198 0.0 -0.26376210216202867 -1.374994784059206 0.0
270 2 10.54644566853829 12.035537320911077 0.0 -0.511544479438532 3.330204433149052 0.0
271 2 19.028717225406794 17.24693632750922 0.0 -0.9428032619982739 -15.645230394158204 0.0
272 1 17.207234178946944 4.400723562576456 0.0 -1.687964872750667 -1.199303918171231 0.0
273 2 2.867414997005452 4.648159501860178 0.0 0.4548708804713775 2.86765962760541 0.0
274 2 6.678573961119476 16.13462318427978 0.0 -4.978869176052898 2.4209669433947774 0.0
275 1 7.760992722179393 16.706434747935095 0.0 -2.8397272563437097 3.1160067119955026 0.0
276 1 3.4342323662452157 4.019918317637797 0.0 -16.027076962364212 -2.883733227188162 0.0
277 1 13.653416462772817 3.158972615101368 0.0 -4.785041616004143 -7.6527004880568015 0.0
278 2 10.585684436587849 17.978266843075094 0.0 10.669568844076945 4.925437393948575 0.0
279 1 9.827745801876969 0.8413717127802294 0.0 -4.42837680005721 0.3614832524276082 0.0
280 2 10.746822772975543 2.7260637843913695 0.0 -1.882279461642061 -7.427188893047067 0.0
281 2 1.9833026482052198 11.416752933330544 0.0 3.8320510231927325 -2.0439426313025977 0.0
282 1 15.127268724272486 3.0321458215529176 0.0 2.5817871346470636 2.2984815902572477 0.0
283 2 4.705079499966171 12.916732869552087 0.0 2.751272035377929 -9.12149536444085 0.0
284 2 1.5563888730766757 6.210308875965891 0.0 2.918781747715215 1.21134860654509 0.0
285 2 15.988171661811437 1.996239440124005 0.0 -5.4306736555904696 7.167796717192912 0.0
286 2 10.12133682297205 16.232395439532723 0.0 -1.4945888010189516 4.311985374801027 0.0
287 1 5.238679895732835 3.3817606869324144 0.0 -4.980754776080037 -8.736194420346594 0.0
288 1 18.92423745676846 15.707297391408856 0.0 9.655920064946736 14.736775371885464 0.0
289 1 18.099495817025755 17.658977275649164 0.0 14.91000889419177 8.867762529808875 0.0
290 1 11.07820916663125 3.605161217267996 0.0 12.95279333386099 7.052213568388314 0.0
291 1 0.6863488953351693 8.598884303405411 0.0 -7.979246693499373 -0.026256830725553727 0.0
292 2 12.359134317241855 15.030120146312502 0.0 -8.88396190500826 11.386906106173894 0.0
293 1 5.477615114870482 3.8877506301147124 0.0 -10.081985201055717 -0.29912673333161394 0.0
294 1 8.743320578837615 9.36628315390743 0.0 20.5723146897898 12.572660182988734 0.0
295 1 12.824612869049497 0.03653462437735132 0.0 12.002262823769659 -0.5619607730827488 0.0
296 1 7.0187723174164045 4.668906303315903 0.0 -2.6395618662863587 3.219738164194395 0.0
297 1 1.2386449776871924 10.554365396482421 0.0 -6.4829476756156375 -2.631222358007201 0.0
298 1 3.6601810772515493 8.027513996160392 0.0 8.897163175505101 -9.04909595979912 0.0
299 2 1.5074207274235343 14.92221253477098 0.0 -3.3017280224612398 -7.676272069759236 0.0
300 2 9.020534182973703 8.615538019678896 0.0 2.0117492227455807 -6.637138295398624 0.0
301 2 8.869153781502241 17.815950660761093 0.0 2.7813012807236794 4.324409718775971 0.0
302 2 3.2976476186900743 2.3809177043093857 0.0 3.1199228761107003 -5.585656481262346 0.0
303 2 19.644216329930952 5.852871277473501 0.0 -3.403312144659459 -2.4788866976990422 0.0
304 2 12.24087887997421 3.309663120691673 0.0 -2.0052948139804645 4.943260299550542 0.0
305 2 9.365135503654637 7.393713058477417 0.0 13.995437936760617 6.596724359973311 0.0
306 2 8.741250964345118 10.996671951964109 0.0 1.5379461100995997 9.30219474548084 0.0
307 2 2.076058763553114 17.895129949430885 0.0 1.5322428906333194 3.9287744931709563 0.0
308 1 6.211465800373639 15.049535229536074 0.0 -3.5919219293431266 -5.314616400126966 0.0
309 2 12.680780379385972 16.942454783554567 0.0 -1.1968043686288043 5.500101846485434 0.0
310 1 3.8005632674385987 5.349050676594807 0.0 -0.03614354233908098 -8.644571341408044 0.0
311 2 11.86858908805657 8.006074374100452 0.0 -1.0567384856851572 8.609573987967135 0.0
312 1 5.636557815211524 13.551424202390649 0.0 -10.563909236560356 2.8574589850899734 0.0
313 1 2.9870892134724545 3.7375487281533326 0.0 -3.785982870317573 -7.812699267948832 0.0
314 2 3.9848427354435585 11.079899935595357 0.0 -0.6042481916654894 -4.526545942010991 0.0
315 2 4.535747264101335 7.471983729916336 0.0 3.4152077807398036 0.23446421781920163 0.0
316 1 14.13337471396995 5.907914292833254 0.0 -4.426740907000894 6.63469520877152 0.0
317 2 5.250935293129361 19.22295740519113 0.0 0.14686376037050647 -3.368526452575809 0.0
318 2 16.47753154879324 5.720418572384954 0.0 4.38908311653714 8.155846592844437 0.0
319 1 17.11558682996277 19.56073160113089 0.0 10.59505060859684 -6.227332848182624 0.0
320 2 16.46709987842581 18.941907103760315 0.0 4.777298669249278 -0.1746952452729166 0.0
321 1 6.1191203409976165 15.5667279020514 0.0 -5.12858883244576 7.81328170077845 0.0
322 1 9.77037654173837 8.92031338026468 0.0 4.643554701362649 6.676034758627494 0.0
323 1 6.094444099321231 4.659048826677327 0.0 -16.191232642202493 -8.394989255135796 0.0
324 2 12.718509958752788 9.992510321796107 0.0 -0.7592863673501968 -7.9528373226872375 0.0
325 1 16.389389848358054 0.11965597475691557 0.0 20.58226241471373 -4.036056291725282 0.0
326 1 17.16919838054451 6.808853899889989 0.0 15.583045589499312 -9.688208223946075 0.0
327 2 18.50391987112867 12.793192848538308 0.0 1.1647928920018364 -4.232418334431748 0.0
328 1 9.11278086889587 15.771694209086796 0.0 -7.903833772163354 2.964448994100013 0.0
329 1 15.191069312712102 2.0073907083466263 0.0 -3.8817243957418706 8.332509115742306 0.0
330 2 0.19904837780365833 18.186597243832363 0.0 -0.05079433038527937 6.663067871553747 0.0
331 2 17.395211259810946 9.185650734580427 0.0 -16.05848918530032 -3.8841011826822838 0.0
332 2 1.6820425171919828 1.37737554860232 0.0 2.6979717814892097 3.352198697523555 0.0
333 1 4.906551603471347 18.44526126226841 0.0 -15.115813379766038 11.313834335180898 0.0
334 1 5.094523753061553 2.3476981174777527 0.0 -12.452566619169133 20.242229187482476 0.0
335 1 1.323995133450151 13.953803891579492 0.0 -1.0551930359834347 -5.181211258654277 0.0
336 1 10.877482222699514 16.56674444184019 0.0 -0.8364250182080307 -5.493282334267989 0.0