ITEM: TIMESTEP
0
ITEM: NUMBER OF ATOMS
400
ITEM: BOX BOUNDS xy xz yz pp pp pp
0.0 19.7609 0.0
0.0 19.7609 0.0
0.0 10.0 0.0
ITEM: ATOMS id type x y z vx vy vz
1 1 3.9316810434176057 12.478999779738164 0.0 4.051946671942945 9.249446125542674 0.0
2 2 14.2262753654901 15.566936239822969 0.0 3.258798003832851 12.677480577395722 0.0
3 1 19.19338550951156 13.666223253584583 0.0 -20.584523913164826 -10.108539791233966 0.0
4 1 7.872766191305066 18.069057543082657 0.0 -6.607650783120301 18.203254728988338 0.0
5 1 12.846556003216273 2.8068310722289866 0.0 -0.6144436113758692 -2.914216538207383 0.0
6 2 15.428953400788505 15.62467297415471 0.0 5.823468741568543 -0.8031594284055015 0.0
7 2 16.677726612156675 16.11300037646069 0.0 -1.9013802616765705 -1.1574144899588865 0.0
8 1 5.569492156315695 9.807031369199116 0.0 2.4803991140374344 10.003635052866686 0.0
9 2 1.985870803011349 18.89492905484096 0.0 -1.2995682875858416 -2.2282158629540425 0.0
10 1 17.137615771141405 3.218500622779884 0.0 6.587627046623587 -3.3500165895329417 0.0
11 2 10.080773092409983 0.4580805726938297 0.0 -8.947598290464517 8.53949037229232 0.0
12 1 14.616594069398396 5.597395761202666 0.0 -7.401681703686706 -9.695702743490903 0.0
13 2 15.27032604822074 19.658456058130334 0.0 -6.768978362692875 1.7671838881497397 0.0
14 2 12.463073538704247 0.7239013927167003 0.0 -0.05079970662185757 5.481707727187522 0.0
15 2 15.07971687169109 9.299163186834232 0.0 5.101058653900545 -5.7886372203216245 0.0
16 1 8.116864435647958 11.358208863481384 0.0 1.6736515576517013 10.212553406144874 0.0
17 1 17.23721800432167 1.0230751435716021 0.0 0.40921541448777565 5.266173892436467 0.0
18 2 11.581952332634396 4.868444524650927 0.0 -16.78319855916305 -3.7708794516019997 0.0
19 1 9.083489125414474 7.000129874789372 0.0 1.393788641181428 -12.373848616152499 0.0
20 1 15.315155753408082 17.11282474905139 0.0 20.336033890454395 -6.434488621181333 0.0
21 1 13.840014825453624 9.082814879356023 0.0 1.0602400182753668 1.7068579817057827 0.0
22 2 14.254619588357205 11.664287831072189 0.0 -14.299146824986606 3.107387619349473 0.0
23 1 14.287856721968074 7.622560561397544 0.0 10.019765297290691 -8.784228652326412 0.0
24 1 11.649253708519405 14.194536214349355 0.0 -7.289355708516331 -2.1274699851112544 0.0
25 1 16.188941214025363 8.917109757933419 0.0 -8.147313603782033 9.49862848338055 0.0
26 1 19.4335356903624 18.62278487860438 0.0 -13.18012146646809 0.7175160479424232 0.0
27 1 7.61446445292693 3.2315557112873488 0.0 -9.928609560548638 -1.5226556596959826 0.0
28 1 12.364283021673726 12.555674111649939 0.0 4.779274486959387 -3.792248489935153 0.0
29 2 11.921785230563076 16.418150512998057 0.0 1.966473449953346 10.568306948532824 0.0
30 1 4.848863727229548 15.596376889431953 0.0 4.164563031385783 -9.593657907867067 0.0
31 1 6.235172137133459 11.196402116547834 0.0 -4.5109030504277285 -3.514076708195006 0.0
32 2 0.614637136804593 1.923937035107293 0.0 -2.3325920936130506 -2.949376450442506 0.0
33 1 5.552175182700101 1.5078211297294617 0.0 15.667555367312726 13.526633396843938 0.0
34 1 3.031265304124824 13.522887957036293 0.0 -7.087589499873615 -9.42330910619996 0.0
35 1 13.303208983671821 3.1443693272395556 0.0 -2.1717714933960717 -2.1388529923357678 0.0
36 2 17.749959162012274 14.51844125795511 0.0 -11.210115382290354 6.805241061612589 0.0
37 1 2.2096145491757175 3.2910454492744203 0.0 6.717277796647527 6.152638448711778 0.0
38 2 19.57593181665333 17.303054125967993 0.0 4.228338881890738 -4.047066757658964 0.0
39 2 6.885072407559636 0.1270906617760054 0.0 2.384135544688549 3.981786412127428 0.0
40 1 16.22588565543938 17.232377838270647 0.0 0.9454866752587131 -9.084946401116664 0.0
41 2 2.35543078455497 11.361894269896556 0.0 1.3038211286525327 14.902903951518756 0.0
42 1 16.67977156457717 12.838527703303642 0.0 14.758572760797062 -3.849797470125251 0.0
43 1 4.583622975673071 3.053175056330419 0.0 -5.091734135286484 5.3782699098463524 0.0
44 2 11.240780565109171 17.94260771790115 0.0 5.951942655897364 4.082304434579511 0.0
45 1 15.480861510768426 5.962799076715948 0.0 -1.895443459853205 -4.094450636778943 0.0
46 1 2.9236653242482116 3.0457640081912256 0.0 1.062617423132777 -2.13907558354168 0.0
47 2 2.9218188150496482 10.4501823686434 0.0 15.214376654353275 -2.2072287397901253 0.0
48 2 3.5517530645150948 14.934939532028988 0.0 -4.029833814704046 4.409666644199592 0.0
49 1 15.048005453355751 6.657684254966134 0.0 17.917322719126396 20.179211457636605 0.0
50 2 3.43700150580377 3.672948646755503 0.0 -0.26765649627941435 0.21104458006629473 0.0
51 1 2.3737410935987726 12.849101694776467 0.0 7.240760334318309 -1.2878196222716827 0.0
52 2 7.330216773180193 16.75151650371773 0.0 14.409242424990786 1.7874317871067502 0.0
53 2 7.6096293168973945 4.791912837229813 0.0 -7.817517602012436 5.661890009275483 0.0
54 1 6.959141352387725 3.691659556976101 0.0 -12.175718782663404 -12.880213235675038 0.0
55 1 13.597501114950735 5.12114112241249 0.0 12.234395215047597 4.3032938559601055 0.0
56 1 16.301972933758336 7.890949523056281 0.0 -27.593868467996735 -11.660044114217687 0.0
57 1 19.45033303652997 2.326414132095452 0.0 -8.338390127591133 5.867596008441682 0.0
58 2 14.517183382926286 3.0719430667987444 0.0 0.16028440309091516 -2.610591481300052 0.0
59 2 15.098294156483181 4.25721772065626 0.0 -9.051379033892987 7.286231945398908 0.0
60 1 13.91139540761588 5.685959956584895 0.0 -8.946200448215038 -9.738014942902733 0.0
61 2 18.071385611704674 10.671743560483742 0.0 4.679180673493105 10.064682235265382 0.0
62 1 14.876135601769986 8.103608126290947 0.0 -1.1050595315019867 -12.310564039471517 0.0
63 1 1.5409556159893527 6.656413911653438 0.0 4.921674717620382 -3.541842149384993 0.0
64 2 3.5693853283820216 17.589078156443804 0.0 1.7713762760519955 -0.455071082600691 0.0
65 1 18.389827148037647 2.406160885208889 0.0 23.38130603582779 -9.689636545522353 0.0
66 2 19.077583470718274 4.535147672412906 0.0 0.6558508696390082 -5.857728715962156 0.0
67 1 15.679050672857628 14.409506415975903 0.0 -3.3225900524860683 -3.0252095218252535 0.0
68 2 4.7498962817374135 11.94417787655963 0.0 5.46609739610335 -1.503152448154531 0.0
69 2 1.5058732494112126 19.68213532366443 0.0 -1.5474752940861967 -2.69707174608599 0.0
70 1 15.317684252661774 7.39439844950962 0.0 -2.1115734423538735 -10.815180152272031 0.0
71 1 14.876671803268996 14.201869021325333 0.0 -3.3209641651022888 -4.354938146045868 0.0
72 1 18.79881001868197 7.806132405442638 0.0 -4.990105093681104 9.11253217480916 0.0
73 1 5.328752301075752 3.958900195485204 0.0 -17.25370608180267 4.65660878193152 0.0
74 1 15.182281706005115 12.913309825245946 0.0 6.466880714318407 -5.0635687265261025 0.0
75 2 6.625215363845712 6.037009469769379 0.0 -0.364553813359817 -5.765338896283805 0.0
76 1 10.149797770850578 7.208461646422047 0.0 2.5422987501900356 6.038675338726467 0.0
77 1 15.887810319124489 2.9869380966162336 0.0 2.0670092459530602 8.749570550937822 0.0
78 2 11.508017857042645 12.532701486698276 0.0 -1.4653678583036658 1.2937967538707398 0.0
79 1 5.97583745882582 9.619896077018163 0.0 3.2887441954303105 -4.063855750947137 0.0
80 2 4.65085291189133 4.91549083362078 0.0 1.7589546321477332 -0.8042252623170565 0.0
81 1 2.6816502115480954 4.475290788862613 0.0 24.83814158206929 8.404590549188919 0.0
82 2 6.056753971407761 7.2532351515909905 0.0 5.383561115672663 6.144284947874822 0.0
83 1 4.628550087176716 12.879956388872051 0.0 0.21023566870045363 -6.173677288752867 0.0
84 2 0.3741734994387605 18.096092461413082 0.0 -1.6746146965831987 -7.390597620812799 0.0
85 1 15.113658749180116 1.4345658972723205 0.0 -3.3334303510752026 4.4939062181952005 0.0
86 1 0.3627540041903259 14.23360388968334 0.0 2.2323845210396285 3.295241174104159 0.0
87 1 17.706958508342247 18.186110253101184 0.0 9.758546544446995 -6.424891032132634 0.0
88 2 6.187446551420433 14.699890795881283 0.0 -4.372194159963193 -1.2607531914631336 0.0
89 1 1.2598512779862288 11.965486562650513 0.0 10.367151200072199 0.21513996802868202 0.0
90 2 9.117280247079515 0.11700594146540462 0.0 -3.201397837349808 -15.853388955145927 0.0
91 2 18.242180607434232 5.10485353859126 0.0 4.808845762318248 -6.21423970855094 0.0
92 1 7.4931875178002025 14.716684552192794 0.0 8.654394408558653 -6.930732520262928 0.0
93 1 3.0888707839101524 0.346625473299913 0.0 0.4966174222226018 -5.512063022208243 0.0
94 1 5.838161802754022 13.933549516679916 0.0 9.26827186342855 9.59211603611659 0.0
95 2 5.4678108958366245 13.10291006358036 0.0 2.667123660172257 -10.637331132023832 0.0
96 2 1.723019312373939 8.221031380053711 0.0 11.421660105110275 -3.454309850865133 0.0
97 1 5.526495950258725 4.424437790260693 0.0 -0.2872133574566478 -3.4674797395158627 0.0
98 2 3.9326606856545974 6.00273724338799 0.0 7.316787564317378 -7.801567864179777 0.0
99 1 2.209168296318638 9.531193270270421 0.0 3.717249365751248 -1.420364553749024 0.0
100 1 17.2343690369163 17.923515041748598 0.0 -6.443186331195027 -7.089292110563107 0.0
101 1 13.353456656628948 15.047106740038762 0.0 3.160659832054105 -2.9327107415858946 0.0
102 1 14.240216893048089 4.496939636160517 0.0 -2.7110265981414985 8.204135142775458 0.0
103 1 17.076926896941583 13.330914793322233 0.0 -2.3243040487477273 -6.493753217481501 0.0
104 2 4.37500925293511 17.23331166843031 0.0 2.8768099207842326 -7.00247319039431 0.0
105 1 5.606541203227557 5.387295211544921 0.0 -7.851838759199443 14.086062259077083 0.0
106 1 14.416537240475437 7.0957390847908925 0.0 -11.200362890691459 -10.229356520327489 0.0
107 1 6.706720741151207 9.83543265935101 0.0 -6.675680131855934 6.1387456667275355 0.0
108 2 16.451228819594576 19.203425219844934 0.0 -2.764776560600395 -4.683002575999207 0.0
109 1 13.07258054174579 9.611610875646415 0.0 0.9579993010626882 -0.2239958954683387 0.0
110 2 4.951429094067008 7.91241569244168 0.0 3.915453173722229 -1.0543801801755315 0.0
111 1 17.015570371375688 8.579261590278701 0.0 2.3246273515545486 -4.232519796917356 0.0
112 1 2.3546256516694264 13.72133715597543 0.0 14.51975197557245 13.620756434234973 0.0
113 1 4.479417910414456 10.035627578553127 0.0 -1.186064565029183 -6.918078220313962 0.0
114 1 4.735265627988683 3.526361390116039 0.0 5.879467988572153 1.8421850174905365 0.0
115 1 19.644599506286013 5.410276399193147 0.0 4.920949331384019 4.554700111240217 0.0
116 2 14.114423055112859 13.13759595720606 0.0 11.866752682635662 -5.2997031428651376 0.0
117 2 3.1532237518508084 12.75180900279181 0.0 -11.684314578893483 -5.616564429541249 0.0
118 1 17.278432565710933 12.79015302446866 0.0 2.502033443049537 -3.3559147154616307 0.0
119 1 18.547827304793966 6.002912915173705 0.0 8.059893909519756 -5.973826446644902 0.0
120 2 7.709058439150655 8.685062521137407 0.0 5.453895367791869 -3.9510393414698854 0.0
121 2 3.406182465323775 11.662824181081312 0.0 18.139110851380877 -8.641543105282254 0.0
122 1 8.460065599166539 18.78025414405325 0.0 5.195978442338866 -4.320086254426804 0.0
123 2 14.27228033466834 19.534909889080605 0.0 1.174557737795224 20.62842541110974 0.0
124 2 9.437152334660803 2.757358940063857 0.0 -0.7641258928543765 -2.6117672695325957 0.0
125 2 3.126444940765064 15.969458127796763 0.0 11.44468350134523 0.9913728580773202 0.0
126 2 0.4278583759564714 15.371716995172049 0.0 -2.677875496077913 3.837022096601563 0.0
127 2 4.827384360089092 19.0461136779047 0.0 -8.078556030789597 -4.911671599118895 0.0
128 2 2.1327802766559043 16.748429388696994 0.0 -0.5911428838162464 1.2040514845609882 0.0
129 2 4.22660130782845 7.376395109275174 0.0 -8.499376528437045 -4.956418530727836 0.0
130 1 9.616622256560184 5.866780726004597 0.0 -6.556389534860729 8.94667318742497 0.0
131 1 8.095498809457313 10.39893408038142 0.0 -0.2541559003706987 4.801263660439533 0.0
132 1 8.593727622645325 17.540393227110908 0.0 -9.141136917477395 14.033857309641007 0.0
133 2 14.154422393626149 17.078511398412598 0.0 5.467251944102332 -10.200973076631913 0.0
134 2 6.414316733556751 4.941519386742462 0.0 9.86019146073909 0.03548892750180626 0.0
135 2 10.907860680796661 3.058467091608328 0.0 -4.119931951913004 1.3096675654150296 0.0
136 1 5.4626709019830875 15.282245672203782 0.0 -1.9082821204582363 -1.597612977351568 0.0
137 2 11.09849155018038 9.170795303402489 0.0 -3.8997148345563257 3.1067388169491568 0.0
138 1 5.908012776662319 8.088413309664556 0.0 11.340148415999792 -9.029763766400839 0.0
139 1 15.55993695410477 6.591229650219862 0.0 3.3403419634554377 2.1388469109843373 0.0
140 2 15.823551617177163 4.9612748920610885 0.0 5.819503621526914 -0.8658404944927296 0.0
141 2 17.835797175074006 11.717236483885179 0.0 4.836526527370095 -10.011171017846872 0.0
142 2 12.103615588890193 1.7300894294366551 0.0 1.174714383776025 -0.05664927529174005 0.0
143 1 8.515147192251229 6.706431034941497 0.0 -2.385969429311622 5.299324781671521 0.0
144 1 14.715298838887835 14.930950955876218 0.0 6.869478456434939 -5.934095876324158 0.0
145 1 4.131935870922258 12.899607904447661 0.0 -14.753011612417717 -0.022518532200320518 0.0
146 2 0.674094225580569 13.028990612904188 0.0 4.094250020378313 -5.6088931358335925 0.0
147 2 2.4205777453736497 2.3330398229938663 0.0 -9.413266601493058 0.7415538701782927 0.0
148 2 19.17749751682574 1.564473618931881 0.0 1.169228473482234 1.1340409076231959 0.0
149 2 17.810338463331533 7.18278489637795 0.0 -5.450262850191827 4.129454094973958 0.0
150 2 11.847731211942223 0.11478819081667777 0.0 -0.1000345285612157 -0.6718522994022786 0.0
151 2 16.36694036794212 1.7011772331113544 0.0 0.18241104722705276 -7.171950470042718 0.0
152 1 5.315029591931766 2.0784896757764786 0.0 -8.749754667048975 9.115615346884102 0.0
153 2 9.686327919881498 15.548491475771083 0.0 -4.389168154189194 2.9656057319854856 0.0
154 2 10.384074163315523 5.176365353353914 0.0 -5.309777200949881 -3.2804316210947504 0.0
155 1 7.278739922507098 9.953285704330481 0.0 16.814246714186023 2.634989600791938 0.0
156 1 16.851419540183148 4.631584219504664 0.0 6.533518100399574 11.549947882953326 0.0
157 2 13.58138988602163 2.415070314057292 0.0 6.9319209580363434 2.39708198771898 0.0
158 2 11.385501245095456 2.1739089110895518 0.0 0.1728780156941024 4.568811801221519 0.0
159 1 5.777491694354087 6.135911170069201 0.0 5.415419990378902 -5.210318115751794 0.0
160 1 16.45071962633893 2.541890265795364 0.0 10.153257861807981 12.284534413157711 0.0
161 2 10.574146168993753 13.43437524837281 0.0 -14.648082531613836 -3.9180728535897047 0.0
162 1 12.650000996647941 15.271029531667883 0.0 -8.322868673747584 -9.33774879277085 0.0
163 2 7.414043561371146 7.701787623102024 0.0 -2.8585482959328976 4.373236075157563 0.0
164 1 6.047014587266158 1.3729206296642213 0.0 -12.595935771472496 15.040427381449776 0.0
165 2 12.339956812556688 5.927602669180024 0.0 -1.8307391970975166 3.0304961091017955 0.0
166 1 10.869584660245742 18.930374019021794 0.0 -6.462409892107053 3.4192873905112093 0.0
167 2 10.881283719461402 11.606863648259948 0.0 1.4726719064888425 7.629097346208133 0.0
168 1 0.6732500718958773 5.077126157279206 0.0 8.304676482276667 4.990734553282841 0.0
169 1 13.988135062388434 6.881478298443134 0.0 -9.799596279281548 -13.256449204581374 0.0
170 1 7.878774421040432 9.690541972864029 0.0 -11.154949142483499 8.773217581463138 0.0
171 1 16.163136392318922 13.270798767155393 0.0 5.690330081299379 -16.733081924857057 0.0
172 1 17.249015647903196 1.4893584395491066 0.0 12.156517200040216 6.983050229580307 0.0
173 2 18.11520521499474 15.550047121352378 0.0 3.486382750359887 -4.756173819216189 0.0
174 1 4.197893071948393 2.007986436324405 0.0 -3.1435226778240533 1.2307932130843666 0.0
175 2 3.23155960986509 1.238436572587918 0.0 1.764596544929007 -2.5436243443484967 0.0
176 2 6.389286905327132 18.28017902537828 0.0 -5.0067367059799155 2.3193736434423924 0.0
177 1 9.161878429954427 5.897154620785936 0.0 4.5487725326369395 5.2246965531628025 0.0
178 1 3.6349824567531783 6.721331229209084 0.0 -4.653742951645513 24.31416823323389 0.0
179 2 12.965223954392583 7.560079411687216 0.0 1.8145435623503576 -2.0961130358273725 0.0
180 2 14.12538033686453 10.236105864711327 0.0 0.8949258483509724 -2.827617310048475 0.0
181 1 14.197033677721691 1.6496272226797748 0.0 -2.775532654293099 -19.15005049015461 0.0
182 2 2.274388970816705 15.65920784676138 0.0 3.0565590799327356 7.8675355352097185 0.0
183 1 4.077313468919679 18.335455449351848 0.0 -11.155395576317876 -4.439003855643684 0.0
184 1 1.202204866683436 14.560845135653038 0.0 16.553124867575267 -8.658283108041463 0.0
185 1 9.671285429332764 6.723889076438241 0.0 -4.971368119689776 -2.8649968937817443 0.0
186 1 0.3219886484343081 3.1899124800623637 0.0 1.550282902258662 8.633920266801836 0.0
187 1 6.907218641047195 1.4414000383800494 0.0 13.173389632753313 0.1604428988654609 0.0
188 1 18.764043793069558 13.209050868937048 0.0 -9.823681801292373 10.621029725107801 0.0
189 2 19.692710020474628 16.19930505053652 0.0 8.630335866140815 2.259505964715084 0.0
190 1 11.58858313797794 9.9283296754535 0.0 3.9273972325640565 -14.234598765766972 0.0
191 2 13.88851850925808 18.200653668627606 0.0 -4.5186218541238325 2.3768012945281916 0.0
192 2 0.13762567378381962 9.886300649026573 0.0 -1.0734454800044053 -5.8196597404135995 0.0
193 1 9.54186317122011 7.192927216932764 0.0 5.68109985499932 7.287099780980561 0.0
194 1 18.292595791612598 1.4501004088751355 0.0 -8.739402048193769 -3.8797242631877435 0.0
195 2 18.250656851364575 9.494393330209732 0.0 1.0750721051262055 -7.7091662433332795 0.0
196 1 1.5360522923345006 5.818913838474973 0.0 9.851924123357081 -0.3940857651101115 0.0
197 1 1.152950005801319 18.74335244271371 0.0 17.47200928751781 13.046787597766961 0.0
198 2 8.670652595057307 7.993167693029927 0.0 4.709680834110905 0.7607781868539061 0.0
199 2 9.673303498345398 3.9796691355465397 0.0 -4.194687632407465 -2.486408490186766 0.0
200 1 8.555365223637727 9.694650886578668 0.0 5.80700955306819 1.1649580996913045 0.0
201 2 7.868259766865388 15.833263955474761 0.0 0.5973635367354352 -4.404131111568289 0.0
202 2 10.730136068274705 7.813966349553508 0.0 -6.382334347092007 11.859739165834036 0.0
203 2 0.6819213178531165 6.6810577867205145 0.0 -13.087063877761752 -14.195428044034035 0.0
204 1 2.6308280953219922 3.382143322234017 0.0 -7.807458830001372 4.040540055444956 0.0
205 2 8.398137377450809 4.252597392991412 0.0 -4.891666852499176 -3.8306425579638 0.0
206 1 17.433013073749166 0.6356646490834751 0.0 -13.86717600704996 11.264846864398628 0.0
207 1 16.632215169712477 14.14214868486389 0.0 -2.9823485356827173 9.041613553860365 0.0
208 2 9.82512705627089 12.041582469677037 0.0 7.290783333919287 5.45029169767585 0.0
209 1 18.957105687697176 16.046200309918692 0.0 -7.807427835494914 2.889366728569089 0.0
210 1 0.924131750532342 9.405649373809332 0.0 -6.639604632244742 -15.993075755131594 0.0
211 1 19.59997108274299 19.2775227079658 0.0 1.4049123477846275 17.94213710229298 0.0
212 1 5.651286266765222 6.624966576288698 0.0 -1.484427132250643 18.560595729181898 0.0
213 2 17.274567303598694 6.188901553311909 0.0 5.064866026917429 6.387548410354937 0.0
214 1 0.1475876865793336 4.800689873934083 0.0 -0.9361401075266941 2.8291864909512405 0.0
215 1 13.302325952262207 5.619133161688671 0.0 -4.131377531488307 -4.613541492559415 0.0
216 1 3.8149046629864887 13.931590590062502 0.0 3.280976861291265 1.8334589233990466 0.0
217 1 8.025518201897587 3.4678513016697123 0.0 9.829149428150807 14.685665623723542 0.0
218 1 13.326292853516511 11.960176371573471 0.0 -9.289806793230214 -4.932743025949383 0.0
219 1 18.17863027069839 12.926937705518307 0.0 3.956701752252524 0.8026516231601559 0.0
220 1 3.646817955236091 18.56231239074753 0.0 14.375555581365775 14.086948994068484 0.0
221 2 10.984989405809252 1.1325041945178906 0.0 5.894000664894216 -7.478212075000712 0.0
222 2 17.23679779078971 10.154943134569884 0.0 8.902361977327983 7.309727025355975 0.0
223 1 6.2374231532098054 4.152733492757263 0.0 18.14534810051415 4.978023176879055 0.0
224 1 7.613180739925108 17.58020523662382 0.0 9.449737343298244 -5.185082179941865 0.0
225 1 6.845071208858838 18.98986221224845 0.0 -5.259081641200076 1.2959485934709383 0.0
226 1 13.35026883242481 6.225151167682529 0.0 -10.943184786755248 -8.502458837128014 0.0
227 1 9.390329583106556 0.9222752859503285 0.0 4.712696614202275 17.724606529536686 0.0
228 1 2.491737590851221 9.024603103190264 0.0 -10.9654029485691 5.281374909981335 0.0
229 2 14.021337759609848 13.990676657312907 0.0 -9.23549568720422 -4.350458067810668 0.0
230 1 2.8806865478510004 19.308497087962596 0.0 4.52881404685325 6.205783208064262 0.0
231 1 14.346139163076343 6.190463897815268 0.0 -5.415893611549556 -11.463053908794683 0.0
232 2 8.838371905807849 14.823930567206748 0.0 -3.8751523671811947 -6.968300201087571 0.0
233 2 5.913244148191899 19.35543961844249 0.0 7.309632279668239 5.399275799368791 0.0
234 1 11.741851778496946 6.611568724748304 0.0 -0.3138108198404139 2.830685907409982 0.0
235 1 11.948009285833876 13.62373396422254 0.0 0.8245725332276626 -7.577849840572347 0.0
236 1 15.638665281292782 8.259802842291034 0.0 -3.467541930723431 -12.300780806737137 0.0
237 2 10.536626343663137 17.197805953757662 0.0 -2.2826713924281563 4.199273457830531 0.0
238 2 18.520161322060588 18.13855777822333 0.0 -3.5044763108118135 3.1471203813297515 0.0
239 1 8.735984775548653 5.554691286738706 0.0 1.7222730517882963 -13.800108845840295 0.0
240 1 16.597357467735755 4.093903489749591 0.0 -8.076240576855126 0.8927566414359563 0.0
241 1 4.862144219297865 16.21594537993861 0.0 -7.109729423562883 -4.229184731725182 0.0
242 2 3.8565231216606644 19.291979456763638 0.0 -8.400919893099331 -0.4546521466179832 0.0
243 1 9.537022053004362 5.401472726714779 0.0 4.268081861298352 1.0762612427556997 0.0
244 2 18.335192070598737 0.5269843778594895 0.0 -0.29643162028188713 5.469357134839536 0.0
245 2 0.639578517456022 0.1809651215335031 0.0 -5.880881827268748 1.0755475316240788 0.0
246 2 13.434793038730035 11.008356567720055 0.0 -1.4664444021934908 9.615286335672877 0.0
247 1 6.310071672504552 8.48677771357853 0.0 -2.6740700855559103 -5.913686903074947 0.0
248 2 8.822096285879718 16.384564677261345 0.0 1.0847610385505528 2.005688467188417 0.0
249 2 12.921167062120237 18.659177556194905 0.0 -7.051144911304037 13.314037868620964 0.0
250 2 9.847321380612666 1.7772144965187395 0.0 2.6948431014108083 2.4401116411751054 0.0
251 1 10.116838551757771 19.230980333591162 0.0 -12.394782316513252 -6.746860073791536 0.0
252 2 5.931379196163299 3.240804317414369 0.0 2.5001325075048135 1.3830702961555388 0.0
253 1 7.450160653674475 18.573155130021483 0.0 -10.67870005760271 4.921809285413435 0.0
254 1 8.916235419549132 8.975342759552559 0.0 -16.046225229099942 16.676314895017594 0.0
255 1 7.284964416400913 6.578637072064654 0.0 0.5240204330289868 1.4532551611136286 0.0
256 2 2.5843685928660722 14.726515398192989 0.0 -5.413946627264563 0.6556923579613109 0.0
257 1 7.401289506555697 2.237834691652504 0.0 5.704316424451905 -0.16421618665981946 0.0
258 2 10.536866780079544 15.885976067137992 0.0 6.009986338685112 -0.8314841410864298 0.0
259 2 16.436293894624836 15.217062033503924 0.0 -12.110779452550833 10.778029190197733 0.0
260 2 8.458333658985183 12.18083577957581 0.0 1.4096506527037187 -10.92379342789455 0.0
261 2 4.873600332009629 18.155759766890586 0.0 -6.303965537245925 1.7997711669122622 0.0
262 1 9.588118409626873 11.17163216619314 0.0 7.475163643462555 -4.467610668026062 0.0
263 2 9.536346911207035 8.490316987462014 0.0 6.101691201255896 -0.8045974117721265 0.0
264 2 1.8992227209397812 4.500594472727533 0.0 -1.3776854322013208 -2.713474497743544 0.0
265 1 10.352111414363836 3.707638502587702 0.0 1.5908747540543642 9.751739338272264 0.0
266 2 16.229699101149617 9.958303222742163 0.0 5.569756143969087 -0.7485118725438221 0.0
267 2 3.845922522011598 10.53271177118898 0.0 -2.090402320423212 1.6526273685247157 0.0
268 1 5.067809204763414 6.604709675215374 0.0 3.7317005573125193 -6.045358668528385 0.0
269 2 12.79021851954279 14.54342274896007 0.0 -4.880156927315019 0.12712965853871455 0.0
270 2 4.680307200435783 0.418703277093511 0.0 -14.705228299260405 0.2655582624603227 0.0
271 2 1.3395732679289962 2.281638907593235 0.0 -2.026385901604936 -9.02518039219298 0.0
272 1 17.627637772480412 16.53075860106871 0.0 -13.790661402523078 2.220156979025688 0.0
273 2 12.594175888769657 3.736678890804432 0.0 -9.523990041175246 -1.7239907698396855 0.0
274 2 19.15964648066979 10.213439571301532 0.0 -2.140184836863051 -3.090722253592967 0.0
275 1 7.656772296263968 10.599148699530538 0.0 -0.444358704780813 7.129565654072785 0.0
276 1 17.413407243757693 13.747859717594817 0.0 1.5629485462223174 11.593538840252966 0.0
277 1 2.59645791730246 7.694343847372481 0.0 10.773591987293262 -8.423159785953851 0.0
278 2 3.0690421166026702 16.906252064736485 0.0 -2.256350312735754 -5.174745760261451 0.0
279 1 7.127317605463017 5.385890955873286 0.0 6.85051559965824 5.428422220341545 0.0
280 2 13.426955583485974 17.509906571072342 0.0 0.7224146377392268 0.8263981719539545 0.0
281 2 6.422488770006327 2.2596548527669853 0.0 -8.054062840962516 0.07943564156707734 0.0
282 1 15.759802312316747 13.515297085546486 0.0 -10.18965218177789 -4.339726478826351 0.0
283 2 15.581712693706878 11.134215197049377 0.0 -10.951208699168507 1.7566870763993196 0.0
284 2 11.76910164670991 7.801156266514987 0.0 -5.228864211980848 -9.031829642691935 0.0
285 2 2.954229009368735 5.578363364490023 0.0 0.4533867696284283 4.360566486410606 0.0
286 2 6.905486740546646 11.694430540442394 0.0 8.064586043709964 -4.712758618690052 0.0
287 1 13.461137828582528 8.60374269405743 0.0 9.35509795822145 -7.52636112839178 0.0
288 1 1.7344783086526965 3.4699560366211086 0.0 -10.496773748789003 10.795067580425146 0.0
289 1 1.3716409207277673 9.112386548994497 0.0 -3.744531331398834 -3.7040954469521097 0.0
290 1 15.657559162489932 17.43994499282471 0.0 0.6212991655472471 -12.188757169356508 0.0
291 1 15.319180277920365 2.5587030661467485 0.0 -4.189922417525934 5.001914401134589 0.0
292 2 3.9701526773098235 8.375510269307545 0.0 3.6097131803572897 -6.545290193384593 0.0
293 1 16.24434959933527 10.801983324043904 0.0 -1.2985100780460819 -1.5719239594430188 0.0
294 1 7.058116639599123 14.971996314096943 0.0 6.897688714641601 -6.236667505088658 0.0
295 1 4.80512247348125 4.072438310656492 0.0 -4.373387974509747 -11.102741595828654 0.0
296 1 19.639627787034772 13.41822190859692 0.0 11.647396043792797 -7.240144318113156 0.0
297 1 19.619098714981423 3.704288152075662 0.0 0.9521990076848883 -1.7339804733838384 0.0
298 1 12.40501823910281 17.228935176232376 0.0 -1.4270843264691189 -4.577283270208674 0.0
299 2 17.147224830269355 7.741617047061692 0.0 -1.5036403735070214 -2.6782148152572547 0.0
300 2 14.879345786136797 0.680557328983917 0.0 5.812224537397668 -7.919884198265633 0.0
301 2 18.865307239452346 19.65788537287512 0.0 -4.48796100089229 1.3881455902127042 0.0
302 2 15.1025533051486 18.09334683126691 0.0 10.99277669436608 -3.150943950860267 0.0
303 2 1.3429545120299198 16.0723198787712 0.0 11.827082325765364 5.485623767312071 0.0
304 2 4.945227156753748 9.049418343342706 0.0 8.268564213356179 -10.520603860378076 0.0
305 2 19.760629376661843 12.54684618365188 0.0 -5.165307169120604 -2.6721751787909604 0.0
306 2 9.171358533839985 18.10869088698239 0.0 -0.26018361771368625 7.035662346904913 0.0
307 2 14.805330271728478 16.476115605444804 0.0 3.180876649372701 3.353684910189646 0.0
308 1 19.303416430753078 5.890911872162796 0.0 -15.976741340520462 -1.0566350202227621 0.0
309 2 1.0067130308460248 17.18854332051443 0.0 0.5187123686462118 13.446634788951727 0.0
310 1 19.36323787929353 7.13779929440886 0.0 6.330519825044382 5.439298540121096 0.0
311 2 10.955504952753337 14.81546136019479 0.0 -5.378824877534989 6.515091974279139 0.0
312 1 15.76990057248406 18.778916483503192 0.0 5.796678180112976 2.83029558958964 0.0
313 1 19.543660307797623 0.5143156650404538 0.0 -9.02723598402431 5.719662672008782 0.0
314 2 15.365726146398105 10.193137915531695 0.0 -4.356758886742924 -5.087898460629976 0.0
315 2 11.052265984370742 5.959633379023147 0.0 7.576492184110308 -1.742441150501289 0.0
316 1 11.919082903194733 9.426587088670507 0.0 -3.4504617565598874 19.09132264892991 0.0
317 2 6.614943506256533 16.293202268890543 0.0 0.04631499790980074 -2.4556083282397347 0.0
318 2 3.342741430910766 2.292266387090423 0.0 4.666808988040175 -0.5959904571183955 0.0
319 1 15.26979366409771 12.437336528998282 0.0 -1.5743271630872728 -6.001759928353876 0.0
320 2 0.7940877227699119 7.71999573037138 0.0 -1.2273836463529908 -10.0418276067366 0.0
321 1 15.486546203789635 13.906205492283734 0.0 -2.336626129720033 0.43896732918746934 0.0
322 1 18.683691994487994 14.040275295750615 0.0 12.772858296149115 -3.60816565042349 0.0
323 1 10.614532687137503 12.53270440466225 0.0 9.373158965006708 -4.599460363424677 0.0
324 2 10.2828387476291 18.36063310247694 0.0 -8.678908526512464 6.307360933676261 0.0
325 1 0.5816397080836555 4.118299944252343 0.0 0.7818200124753633 -0.49952102563121054 0.0
326 1 4.395613487331698 14.108784298713047 0.0 10.165888286502783 -2.5481147465183667 0.0
327 2 9.489082515025537 17.088801390757066 0.0 -3.601140780937202 -8.009029108186347 0.0
328 1 9.146143185935005 14.018371512353088 0.0 8.024282611966152 4.2730822994137485 0.0
329 1 15.90542171276168 16.78876157151934 0.0 -7.26595287488906 6.02270348172263 0.0
330 2 11.203065395749405 4.084199242158542 0.0 5.310357744849258 4.738796823356626 0.0
331 2 8.92443958048314 10.585305659595946 0.0 -6.5998027435483975 0.598328029314643 0.0
332 2 17.08280794196076 11.184460438024692 0.0 3.8763922616412905 -8.490352081505117 0.0
333 1 12.20270762646271 2.8673244851524973 0.0 10.876717373822677 5.235305848809734 0.0
334 1 4.4916548779843986 14.583438959498057 0.0 -5.9466913965133905 -2.0916293010896014 0.0
335 1 12.969071545301771 10.047694614789556 0.0 -13.673294818435679 -5.310774795781307 0.0
336 1 12.823768269149744 6.540269898681466 0.0 4.802948297564183 14.993284721415888 0.0
337 2 10.099821404702038 10.465541193328873 0.0 0.8466463324102388 -0.7071881609724896 0.0