ITEM: TIMESTEP
0
ITEM: NUMBER OF ATOMS
400
ITEM: BOX BOUNDS xy xz yz pp pp pp
0.0 19.7609 0.0
0.0 19.7609 0.0
0.0 10.0 0.0
ITEM: ATOMS id type x y z vx vy vz
1 1 19.065064341336228 7.968249855644945 0.0 7.6001912033136145 -13.998012033640942 0.0
2 2 2.623611094079278 15.380012153405719 0.0 -3.470039061304453 8.686108168555508 0.0
3 1 0.5044212076982801 1.6454334511542108 0.0 3.727101337728599 -4.2190024937806285 0.0
4 1 12.70803502836941 6.900808716021665 0.0 -6.469242755502499 7.194319100171735 0.0
5 1 15.427034280706703 9.191467503182697 0.0 2.3563357091323556 6.687049301189033 0.0
6 2 17.825194689434053 2.6869094388398227 0.0 2.802534794784537 -9.99610891070788 0.0
7 2 7.761247970693501 4.68905163361919 0.0 -6.5652241612519315 -9.021942670039783 0.0
8 1 9.51554006577031 2.5894358393901955 0.0 -10.487911248749942 2.4633380285856856 0.0
9 2 3.1220154117502488 4.427260795724 0.0 -10.774610476608999 -7.058540541219691 0.0
10 1 6.788012347560322 1.1512038099733857 0.0 -10.009984371184261 -6.671755573428664 0.0
11 2 14.269679825963424 0.5323361823120999 0.0 -2.4808456236899716 0.1971375898699319 0.0
12 1 2.9984554474324594 14.500441710659413 0.0 -6.6194552322077564 -7.5376881189850735 0.0
13 2 16.119463077402788 10.29287095674336 0.0 -0.20283893724568955 -12.51154941502913 0.0
14 2 9.24291344358912 6.61772645221764 0.0 -2.116138232350382 -3.7764930036815443 0.0
15 2 8.137360122477613 8.783690611320933 0.0 0.006740541734286592 3.1878582633776538 0.0
16 1 13.431442582536883 8.235182135715684 0.0 -12.300288753374788 3.4682273302386717 0.0
17 1 16.615718414101387 3.984150182207741 0.0 -1.9784135732772958 6.662481813401563 0.0
18 2 12.358120103412032 4.487344588718637 0.0 -0.661029276655847 -3.7154560911798886 0.0
19 1 15.219771588630888 17.33290312434412 0.0 -4.8760411138181246 1.8962209923515945 0.0
20 1 0.927517251541485 2.2811295411920827 0.0 4.925812721899308 -3.0797601371191026 0.0
21 1 3.8252161941169165 1.5205394191225632 0.0 1.9424655235770607 -12.068806213465047 0.0
22 2 7.80098325051051 5.64818318065399 0.0 -4.7899841257755735 -10.310099945477063 0.0
23 1 14.612397060114837 9.108957025734847 0.0 8.962325490206288 -12.513448597627281 0.0
24 1 18.73100549974234 8.4706451429291 0.0 1.384400998405187 -9.11551836638961 0.0
25 1 3.5687840511399385 12.173255013232389 0.0 16.2443770952128 12.12835270697888 0.0
26 1 4.667613426028151 0.0018194211531666377 0.0 -0.7595928192518449 2.657132577540183 0.0
27 1 15.796422858609832 19.714318813525175 0.0 -1.2706409370730247 -1.3471362086372403 0.0
28 1 17.92278848232093 1.701395676712331 0.0 11.403249101490719 -1.329507269936084 0.0
29 2 6.904885973441823 10.299624144239939 0.0 -0.07420015830828731 -4.095430996254035 0.0
30 1 9.982343709353769 11.795014218378302 0.0 -0.7917729674638679 -0.508091241549536 0.0
31 1 14.525992396814694 16.18567362809545 0.0 -9.499370760907318 4.928518541984676 0.0
32 2 11.610988016367294 2.3846554101136657 0.0 2.3928348954056524 1.2615023022440772 0.0
33 1 8.156523281849228 13.85997099168011 0.0 -8.371420252382865 10.068269932189382 0.0
34 1 14.142056609610405 15.934930935843841 0.0 -11.11139792602427 -4.588832357838148 0.0
35 1 2.8979691037734905 18.658195845726777 0.0 0.9167899651544392 5.81381649140744 0.0
36 2 16.521592997478894 11.167666015049853 0.0 -6.062426040191078 6.601721030944454 0.0
37 1 17.20145489046103 13.568022711076381 0.0 8.136699684229411 3.394026824987091 0.0
38 2 17.95997612350435 16.607539090959385 0.0 3.4202361181024297 -3.6920529535439197 0.0
39 2 11.487758477363764 13.754154609594448 0.0 -7.123178794471225 -4.006980603511073 0.0
40 1 8.154386929356477 15.71227267051176 0.0 -10.152034004174038 5.830101957965043 0.0
41 2 1.2377264380959392 10.346640810514378 0.0 -2.389543014965133 1.9166997673280775 0.0
42 1 18.550347215472602 9.581826270552419 0.0 -13.450517136259712 6.560791293267547 0.0
43 1 8.713491046867365 7.154956875459816 0.0 0.1976256223489958 -13.697697706045124 0.0
44 2 9.074401134283747 8.377090064632407 0.0 -1.999129570548847 -7.796109949811195 0.0
45 1 3.5182552223988193 16.001038217217367 0.0 2.073550659032049 -5.097792984568353 0.0
46 1 18.904080429714757 19.573842983628875 0.0 -5.207038026042912 -9.757668801313898 0.0
47 2 16.285635035724482 6.918559280439243 0.0 8.02637012586603 -0.8764398727274537 0.0
48 2 1.9445491979571372 7.975532418517355 0.0 -5.158840102059545 6.191765725225837 0.0
49 1 1.250503600986571 4.342263148872067 0.0 7.394148182056955 0.7354995796802513 0.0
50 2 0.3592596541796124 10.300779275624528 0.0 -0.12178404367427492 1.9840692837349043 0.0
51 1 19.171136898903534 14.169720550681236 0.0 -0.9329901447007585 5.6510746635429205 0.0
52 2 17.274829109523957 0.08927889370510167 0.0 1.0465037791328593 5.101583759002388 0.0
53 2 11.143677412196755 9.061937827206842 0.0 -5.42945839947274 -6.768739352888334 0.0
54 1 15.320731777376224 11.037926855146722 0.0 -3.397416945291864 2.961576438515374 0.0
55 1 3.7583890535567392 15.065796609082577 0.0 -4.2312620164168235 -4.900420668980886 0.0
56 1 10.109964729138394 9.52461232716468 0.0 -3.8349272490590103 8.043640088366859 0.0
57 1 3.635255319664831 11.227166580617078 0.0 -0.6094549852804669 7.226923606363244 0.0
58 2 1.2281863055858668 5.308962672626482 0.0 3.5371094149972286 -7.921366455997023 0.0
59 2 14.611493431450615 19.28278284913384 0.0 11.160386476328949 5.34432920438329 0.0
60 1 19.255307783805126 14.842149938651922 0.0 7.078223184294617 -15.354406059919606 0.0
61 2 10.293713902313833 4.14857969994761 0.0 -2.50426573092661 -8.17011206002318 0.0
62 1 14.718487691854563 4.647141612379611 0.0 3.5061484366771465 -8.466677135263774 0.0
63 1 10.459359845833822 8.481724245699688 0.0 22.811293952487098 -3.0419687168901888 0.0
64 2 2.9090059988830888 9.017908221635002 0.0 -9.232244745140038 0.23936446432395508 0.0
65 1 11.05531869956464 2.888901644277414 0.0 -3.430247237641943 -8.278089148373521 0.0
66 2 1.633424984418321 8.866052905389115 0.0 -4.252255206584468 -7.415240897877986 0.0
67 1 9.689315729947678 13.873527992329729 0.0 -12.05780164781143 8.885637959061848 0.0
68 2 0.711847494969454 18.06930219210452 0.0 8.453337515792983 -18.720775405388316 0.0
69 2 12.234672264779759 17.778950857394605 0.0 -7.081730011656756 10.676900316277049 0.0
70 1 1.9765833206491417 11.497351188766002 0.0 3.2739366160009284 1.4746884507365783 0.0
71 1 9.810286055947145 4.782014195086373 0.0 7.862039611547374 3.880936487509082 0.0
72 1 12.156658931911878 15.841187741310646 0.0 -3.1758541898941193 -0.9550496131629742 0.0
73 1 7.046601454625856 0.346803106338198 0.0 -5.333059299113623 20.566154827325498 0.0
74 1 14.52074621078491 2.8285737212470052 0.0 -4.181601565967576 -8.505459818873835 0.0
75 2 16.680354573609144 6.071483271646859 0.0 6.974808043938882 -12.975125220891602 0.0
76 1 3.3894054485229437 10.228244024969108 0.0 0.8693076820263785 3.6144059002908304 0.0
77 1 7.856639266091741 13.030599999113624 0.0 0.06848788660896162 4.11778018614008 0.0
78 2 10.83029867123881 4.919678154671026 0.0 3.415226242791231 -1.2216766281762996 0.0
79 1 5.796822190137313 11.50553390079912 0.0 -3.487771079658726 14.47596284859141 0.0
80 2 15.387202151812543 7.227741142807049 0.0 -11.258410492782918 11.897513154918476 0.0
81 1 5.374416076279527 3.380694466313688 0.0 4.260324218038301 -1.2347651822913965 0.0
82 2 15.340750595441737 3.7651137458271 0.0 10.060293532133183 0.0212968060818257 0.0
83 1 14.458717101646437 15.380475043351124 0.0 9.42809956313922 4.548355066487963 0.0
84 2 17.647871756933785 10.747706050925395 0.0 -5.541451346877099 1.0222811775664786 0.0
85 1 4.359078606839092 14.283564735597222 0.0 -8.579629565541286 0.7083267999826491 0.0
86 1 18.301451660073113 18.851338983032306 0.0 -1.5658483618417076 6.326879617604643 0.0
87 1 17.085364563080685 2.279411709477377 0.0 -8.456634537679916 2.345721040716132 0.0
88 2 18.02764125768398 0.8707007634275608 0.0 11.877936077137734 -7.919178804408794 0.0
89 1 12.6643780055045 3.1379178876443485 0.0 25.9473810055476 6.2326620767273155 0.0
90 2 4.461495554729004 3.4055056469832694 0.0 -4.23427353819972 5.663086054282673 0.0
91 2 18.70516419564312 4.195128491883199 0.0 4.484662208213631 -2.9830516463568104 0.0
92 1 9.945705204408371 16.18845439904939 0.0 -12.336507392590965 6.0710152782500995 0.0
93 1 6.371707263529869 13.07172617818979 0.0 -1.5489791900325636 2.1623740510472853 0.0
94 1 14.020459862048833 15.49376292630322 0.0 2.1004956546283924 -8.15984640831052 0.0
95 2 3.3172974490767566 8.008232089368185 0.0 -9.40392259769541 -3.761832853026483 0.0
96 2 7.554598110221421 2.522527574660574 0.0 -8.45084912438964 -5.736277519234758 0.0
97 1 2.579947517773563 19.426134369010867 0.0 -11.802946265007302 5.4094488268081 0.0
98 2 13.250291375775282 11.875703162518649 0.0 -1.6268285411690002 1.359491189797651 0.0
99 1 6.293726632248123 15.837146069001072 0.0 6.249531354594747 3.2503507490919885 0.0
100 1 5.9755783856453375 9.960879620713461 0.0 6.3577180934885265 4.688458395884529 0.0
101 1 14.120899817622961 17.169210044393456 0.0 -11.646206642465804 -2.9152820735320084 0.0
102 1 8.256897032108085 18.697758321257012 0.0 -5.2551319723939445 -11.271481831317576 0.0
103 1 8.689647555593977 12.964304889465456 0.0 -1.7988674566490408 1.2900252364242848 0.0
104 2 8.870262249851187 17.45480366907952 0.0 3.6259287685087607 -5.833470425912496 0.0
105 1 8.699903867283554 16.148772697942352 0.0 -1.5275805918953553 0.8278892448404866 0.0
106 1 9.088814480927928 5.314606806887721 0.0 -7.615012470112797 -5.087771123401286 0.0
107 1 12.777309250318973 11.222270379064915 0.0 -0.6681742065031694 6.832402929516734 0.0
108 2 9.734475446853732 1.6748030185599398 0.0 0.7481672874748084 0.7518930704434729 0.0
109 1 0.477150301817173 3.0435421110231515 0.0 -6.92483205550034 4.71266988154449 0.0
110 2 4.623001920092438 1.1017631810792072 0.0 -6.0882602449193595 -1.526582239902778 0.0
111 1 2.585220934617748 11.550580924839515 0.0 -9.27600968688198 6.494852366124692 0.0
112 1 6.111815761842229 8.982007849986744 0.0 -0.47287279736773313 4.531151101474125 0.0
113 1 12.324842540823344 15.385686577074514 0.0 10.813593586919543 6.137930416813675 0.0
114 1 11.01787226750669 11.005101430999897 0.0 10.756897739027163 -1.1238268668682758 0.0
115 1 18.65300928185529 5.950678851600062 0.0 -5.6690703190168135 18.08352840988141 0.0
116 2 13.348470344681274 16.05327682272732 0.0 2.9106141602896844 -10.55398816937373 0.0
117 2 10.21563467671265 6.7192686615348505 0.0 -1.6426841927528864 -3.7634275260162147 0.0
118 1 6.78708053538074 8.657447636904937 0.0 -24.56629800102919 -9.970129481690059 0.0
119 1 9.092596846634695 3.1376383163192174 0.0 -3.0698164501643714 1.217233372362596 0.0
120 2 13.564076929234114 7.402568469384079 0.0 -4.605815809223122 4.26350021826418 0.0
121 2 9.184216950964265 15.36351692451819 0.0 6.760787716637736 -5.855489130299689 0.0
122 1 12.618550014508411 18.703094757816395 0.0 1.542129328619774 3.5360059438146263 0.0
123 2 12.657261419358868 7.68963528266557 0.0 -6.227556203877006 -3.3396260559893665 0.0
124 2 7.473694597595511 11.176480278542478 0.0 1.6799999823135252 6.29552909696211 0.0
125 2 1.8773236705050576 15.670831249755672 0.0 -1.3629864042103095 2.0638757476381566 0.0
126 2 6.87457225315762 18.99175052590742 0.0 2.707807530128454 13.577317584610743 0.0
127 2 10.366211864980771 0.89777121250984 0.0 5.376601168542738 0.6986938506404722 0.0
128 2 19.51885019325628 2.5131691879750475 0.0 -3.7150188450803228 -4.891208615920679 0.0
129 2 1.4747241533345556 12.522712196273309 0.0 -4.035319569498056 7.565190800817043 0.0
130 1 3.563851192313368 9.490777439608827 0.0 -0.9269406989557519 8.998211038143443 0.0
131 1 8.716068548603445 5.065744668670284 0.0 5.834296248352819 -0.9286800304553836 0.0
132 1 9.356589917607208 9.97546380128881 0.0 0.03528190831482866 -10.02105224006294 0.0
133 2 4.681461703097606 12.03623453805959 0.0 -6.330456966916639 13.030592728326285 0.0
134 2 7.188325536309187 6.737309928773661 0.0 7.004595920133081 0.8715625000476743 0.0
135 2 8.641258174153267 2.2296740377747146 0.0 5.494197678264997 3.525343967901866 0.0
136 1 9.728292938530792 18.246556591498994 0.0 -7.589960861264671 1.7924025536658548 0.0
137 2 14.340213374658955 14.087913134130812 0.0 -0.6459840016131781 5.118109770399514 0.0
138 1 14.35182473412531 10.105140508083602 0.0 -3.9985357806921704 -7.828849204997264 0.0
139 1 14.393339987243271 11.364829431193566 0.0 2.2503661820137864 2.654447613306317 0.0
140 2 15.20508873598374 18.44299140651378 0.0 -18.125218251719883 2.6481045549682856 0.0
141 2 13.686415555030223 1.5561112845232632 0.0 -7.4250365842699395 -3.9393654130531686 0.0
142 2 9.109237561290355 19.57220789300573 0.0 -3.124740058383137 1.4541389727406928 0.0
143 1 10.572116828415952 9.917805152830878 0.0 -1.4620310840089568 -3.4071020956324163 0.0
144 1 8.91972407474349 9.605015349582354 0.0 6.93087656472557 4.3750567822808115 0.0
145 1 15.206846403283201 15.455131009341533 0.0 4.484413812415739 2.0220006810316655 0.0
146 2 4.53746029277972 5.6638099776246085 0.0 1.7808496032273373 -3.0666661556869603 0.0
147 2 19.21419895808608 17.132904746799117 0.0 -1.1770809321081295 -11.835562419379961 0.0
148 2 10.33770356501003 5.839067370981182 0.0 -0.760326651606765 -2.8142614806569015 0.0
149 2 7.932706500890234 3.6882698664523694 0.0 0.450820741739914 -14.70204054379345 0.0
150 2 10.913709246395518 19.29968960765245 0.0 0.5269242505346055 -10.041739147106144 0.0
151 2 19.091260207567984 13.336321577731383 0.0 2.6367111848331524 3.3261756593420517 0.0
152 1 2.4342904239510554 16.634323328067754 0.0 -14.76046071205897 1.2226319762944988 0.0
153 2 6.181653097980263 3.160908642407822 0.0 7.590585734510782 15.458206879650064 0.0
154 2 4.3349843668818275 13.452446580448916 0.0 -2.3398524523985587 6.6733666228188735 0.0
155 1 7.057064578758426 9.02880368705773 0.0 5.7842906723637535 -1.2704605595303358 0.0
156 1 16.674972888603396 15.18420698981499 0.0 -1.9461228831067283 -4.977026654454766 0.0
157 2 16.380860372349563 5.1696004237553455 0.0 5.784717350655584 -3.9072993316431557 0.0
158 2 2.860983888639642 12.7533301234252 0.0 -6.319593792794028 0.25609305106277647 0.0
159 1 8.191706010100804 10.844381969490316 0.0 16.81343655522653 -6.475770494048037 0.0
160 1 12.984773944733993 17.797650711612107 0.0 -4.367462487945613 14.489858694009627 0.0
161 2 3.7700764755738 19.236054970216706 0.0 17.036305139801037 7.108623103661208 0.0
162 1 2.122445000619996 11.04242489935964 0.0 -2.981851089307655 3.879622300219525 0.0
163 2 6.057283595556707 4.147656226060631 0.0 -2.6265482070756154 -2.5171411424384407 0.0
164 1 5.767504522193229 8.349356219954698 0.0 17.30810737056417 -2.341582242119329 0.0
165 2 18.841119479386265 18.232143234962304 0.0 -10.036200002568712 -0.5746796474384688 0.0
166 1 3.935420948264015 11.584565350879954 0.0 -4.437877731220326 -8.70758337585634 0.0
167 2 14.323960587345832 18.1700358408652 0.0 11.056473247325954 -1.0076583948122886 0.0
168 1 19.612638679532974 9.268344569379046 0.0 4.374310025049432 4.424854158407273 0.0
169 1 3.458007570111985 6.470287579824707 0.0 9.841236273823341 -1.827055155858798 0.0
170 1 12.193714435757933 19.02584824918391 0.0 3.4328737348757006 -1.3846778607916503 0.0
171 1 3.8022042148465385 7.312993353419506 0.0 -5.431186690832518 -18.602130620436284 0.0
172 1 4.08285316045388 9.976445191271404 0.0 3.9705770449748203 -5.64384826424406 0.0
173 2 18.869432112786548 11.769863264016655 0.0 -3.7340232724183235 -1.5390381028756868 0.0
174 1 18.089296285168793 7.198068601686946 0.0 0.6449686179784871 -15.61068840231553 0.0
175 2 17.060485332201598 0.9927716696021675 0.0 3.813292226916096 0.7564121251435912 0.0
176 2 0.4463623806330202 5.7530824166497645 0.0 12.898650630318865 6.319820598001787 0.0
177 1 14.336308345747105 7.3760995374152705 0.0 -0.6386772028362891 -15.523354812518498 0.0
178 1 16.017075018881307 17.678698729881873 0.0 -7.532376988495698 -3.2755780832717525 0.0
179 2 1.6306487347260388 19.127183030956726 0.0 3.4082938567164387 4.155965994924436 0.0
180 2 16.97005912760664 17.197981188232568 0.0 2.904364850286924 7.337401864910982 0.0
181 1 1.0631401652502144 9.444443201445644 0.0 8.248739365494066 -13.084846554320333 0.0
182 2 16.010128162971192 15.832359380855266 0.0 -10.178657375763182 -6.4930815920049465 0.0
183 1 4.977379078616348 7.207485938618219 0.0 -2.554664991019399 12.56264066829002 0.0
184 1 3.9994156194567827 8.775877132301368 0.0 5.291962889863098 0.0449143678377304 0.0
185 1 17.60959282514937 6.254876783325523 0.0 -10.826365833743244 11.649008205128109 0.0
186 1 9.69118559151424 17.617445070681725 0.0 -17.431735472442337 -17.85992568087941 0.0
187 1 3.600217860310197 14.596483672942227 0.0 2.5385430773867843 -3.9046688001163186 0.0
188 1 14.010556200635119 12.719783875013118 0.0 5.523490577613852 1.0965483395766873 0.0
189 2 16.038500445984514 2.638859886759307 0.0 -1.064406583592704 -3.0619925835889905 0.0
190 1 5.122648187507774 18.020463578860213 0.0 3.327185543458808 4.123272650518743 0.0
191 2 14.97643078684519 12.364188889958466 0.0 4.925536457278037 1.3876440626755941 0.0
192 2 17.030059689923547 18.751578820459585 0.0 4.862316761708256 7.763158711088104 0.0
193 1 10.298963936478037 13.893995225954841 0.0 1.8816480083170137 0.41419547941776497 0.0
194 1 2.3249134240763545 5.179025938976191 0.0 11.079476340683124 -7.561898241087032 0.0
195 2 6.622315646946709 2.2885225793961768 0.0 0.6345534109766401 7.467368381967155 0.0
196 1 13.520290394931655 18.930722667329345 0.0 6.03229303612555 5.572240183715268 0.0
197 1 11.30406824808139 7.316061142390839 0.0 9.658424181503063 -11.384828374319357 0.0
198 2 1.5320542663253305 17.32104582048036 0.0 -3.044161433024746 0.877301084900411 0.0
199 2 0.3576295355626635 6.830043235882442 0.0 -5.262497210051523 -3.7163055993151306 0.0
200 1 17.799082795388635 8.66259789105257 0.0 -7.308576300790123 2.457839350337015 0.0
201 2 12.466576125177598 5.676973213495952 0.0 -10.468349373788667 2.8669427229287727 0.0
202 2 0.014030239238200574 19.085063072721955 0.0 -0.3922366881488848 1.7372832537537515 0.0
203 2 0.5353730027787925 4.799247236581471 0.0 -2.7713858422355315 -6.579829145816204 0.0
204 1 16.47486906515549 0.1549291282418444 0.0 2.294152365862943 1.0786528813860472 0.0
205 2 2.66414147441569 5.910963217000767 0.0 -0.037034418464101805 2.0211951154703294 0.0
206 1 5.176403438137167 17.469937678370936 0.0 2.8986137716788063 0.10033159428651854 0.0
207 1 12.323160925749036 3.5570112373613108 0.0 -9.807740395915141 -4.4559386396893474 0.0
208 2 16.084378234808533 18.68045005845463 0.0 -2.1421710116260293 -10.979507424425464 0.0
209 1 2.6548014682383942 0.47120614466841576 0.0 -9.59479401444833 -0.8222883562161436 0.0
210 1 17.72619602746297 18.544155380579884 0.0 9.045191242001378 -0.730330285949062 0.0
211 1 11.781518443272134 5.240966598262826 0.0 4.964027649404218 9.961968389961632 0.0
212 1 17.913359214531358 9.86850872049619 0.0 5.276351874906029 4.87620843135833 0.0
213 2 5.898136807420343 16.924605692737035 0.0 -0.803235554184838 -2.054098463007113 0.0
214 1 16.557499206083556 8.351853390397286 0.0 -7.586677413853784 10.158165571026355 0.0
215 1 18.477428766573034 14.338957826206153 0.0 8.864448269395831 -12.783021275133425 0.0
216 1 4.705272099762424 9.846833067680937 0.0 0.49030945775100737 11.24611798387064 0.0
217 1 17.039451368887143 3.429817791553995 0.0 8.22445958214765 12.074621606841243 0.0
218 1 10.4636331054086 2.922634207638683 0.0 2.6474931030608664 -9.37055119138294 0.0
219 1 19.350058483487082 16.074976021909773 0.0 15.814027041955947 12.696526352768911 0.0
220 1 12.918220045309935 8.456174586136182 0.0 14.593641494653612 -2.550846634422439 0.0
221 2 17.976564803606085 17.601578356448133 0.0 -10.789041230722026 4.513637934421579 0.0
222 2 5.122923079388576 11.108727820744043 0.0 2.9840672613781396 0.5341427963499443 0.0
223 1 6.910274708032448 15.978274998248498 0.0 12.280078957408165 3.3647768847699715 0.0
224 1 13.50325485402089 14.170846461783498 0.0 11.388973290412434 -3.287651480225208 0.0
225 1 4.520275466098764 8.440371221929839 0.0 -0.46885481133463736 4.935402722426715 0.0
226 1 4.435590716942967 8.973524682604817 0.0 9.925736911226268 12.131704053736305 0.0
227 1 8.371141281397248 0.14560932905588866 0.0 -2.7294988879284485 6.150561474786912 0.0
228 1 13.090844608768448 15.036087428648887 0.0 -3.9085037299032273 2.6142638437476324 0.0
229 2 6.379404857248869 10.967049693025436 0.0 1.3386792602501945 -12.28947571229918 0.0
230 1 3.4867431274916063 1.8920823567109843 0.0 9.304066912778252 5.042904809068112 0.0
231 1 9.209898989882372 9.282411247150424 0.0 -8.303833109083369 7.75933098733433 0.0
232 2 15.019086505713046 1.1897510240122613 0.0 -7.1446606998999185 -6.26520980455493 0.0
233 2 17.412687521878738 7.973173715983734 0.0 -1.0802236934798923 -2.6855494528563213 0.0
234 1 15.344365597310057 2.1754789642258165 0.0 -7.180791918679066 12.008289455330905 0.0
235 1 13.73518045739056 14.819089032879708 0.0 -1.4069827352530455 -6.228128302995287 0.0
236 1 5.426672381770064 14.63342607196024 0.0 -1.3666367429659314 12.542714171938252 0.0
237 2 0.9632306321124288 13.419490747270764 0.0 4.652675743162396 -1.4684553740192834 0.0
238 2 1.703978134459539 18.19359655021043 0.0 7.115839169746437 -0.2068601203735872 0.0
239 1 12.640099121560333 9.148074326674825 0.0 -9.294668381613187 15.3341315633878 0.0
240 1 2.712437324716374 11.025115896307938 0.0 0.3794855649128214 17.883756343990797 0.0
241 1 2.7576569960303656 10.118180561814546 0.0 -5.375900247370093 -6.539544633044063 0.0
242 2 7.563168450027429 7.717925153890603 0.0 -1.0007138366143506 1.2621438272495833 0.0
243 1 19.71583666686424 11.901135762775505 0.0 3.677695188384765 16.22937179290989 0.0
244 2 14.118561704420348 5.298631324327155 0.0 8.446854854138834 -7.137189960913454 0.0
245 2 11.623483809860558 8.269579623748971 0.0 -0.7651188213129454 -7.34208854733151 0.0
246 2 0.487194613324996 11.21760453527137 0.0 -2.2623437477547306 -1.7286135661109117 0.0
247 1 9.392162705740136 4.972473702317469 0.0 -19.961150540694707 2.6547784333277527 0.0
248 2 3.488272288586211 13.7229138822134 0.0 6.65729192694204 2.869550816424091 0.0
249 2 1.8481229185134422 14.40422190506564 0.0 11.374905509842986 -0.4279622586988964 0.0
250 2 8.252473797393037 1.270635567111335 0.0 0.7371278770041367 1.2604393036681227 0.0
251 1 10.453611460341781 10.403355968677314 0.0 -2.5365706042078657 6.254728665779158 0.0
252 2 7.993112112457629 11.822038752377491 0.0 5.323791437140189 3.016778869918514 0.0
253 1 18.854414580414918 0.7002729805557056 0.0 8.473253145865803 17.180618709024984 0.0
254 1 4.590592776394318 18.55754267710238 0.0 0.723328056238645 9.562872577022196 0.0
255 1 1.071049647663197 15.541830479573795 0.0 -5.041324336269753 -2.052634306947589 0.0
256 2 10.172879841189308 15.068442453156688 0.0 4.66713479883918 4.1074884594082075 0.0
257 1 5.49746001253156 10.193575317829369 0.0 6.895039058255173 -13.265558870662709 0.0
258 2 6.228861038657803 14.506261582465783 0.0 -1.1984810189316193 -12.7945597717131 0.0
259 2 5.562554835008676 19.598115608401134 0.0 -1.9401582614336907 -6.682609347871422 0.0
260 2 3.549476133609539 5.668621977770298 0.0 -4.385190343191763 4.004019559014695 0.0
261 2 19.513255776345833 3.639324651141586 0.0 -1.1863477498800368 2.407986982026302 0.0
262 1 6.19124957922317 0.37316094294138275 0.0 -2.216908001139257 7.883253086506668 0.0
263 2 13.432020884017795 6.2828012711389984 0.0 9.076746586033886 -0.813414342487652 0.0
264 2 11.797362163620557 9.61092386689482 0.0 5.843244461073132 5.033273702960756 0.0
265 1 3.119886261931743 16.282648427418362 0.0 1.469865317737431 6.407377103160558 0.0
266 2 0.3467318110141536 8.036718751983738 0.0 4.7049973908018625 -6.323688307293739 0.0
267 2 6.962953652793366 3.965472356614825 0.0 -8.585217935516969 -1.8108803691097026 0.0
268 1 0.18478666863891283 13.084769301945729 0.0 -3.1885093313936523 0.010247804188922138 0.0
269 2 4.627142312406853 16.192016295043885 0.0 3.6335091368917536 -0.7710642070069003 0.0
270 2 1.8380692332765285 3.0809350668508375 0.0 10.790981572988718 -7.062941664030695 0.0
271 2 11.04818453077783 12.508168333518341 0.0 -0.719199976348388 2.7298946676379945 0.0
272 1 1.0402141452346416 1.7476642230776063 0.0 2.7627039480492046 -8.112491984387605 0.0
273 2 0.5574341645495492 16.30669313110797 0.0 2.8131141208060284 -4.496561021606711 0.0
274 2 3.5241153738063953 0.6409559524027654 0.0 -13.544643837969405 3.9024604933386615 0.0
275 1 10.006352978177603 8.646242427706722 0.0 10.666527011941287 1.4033265339618346 0.0
276 1 9.505305652381677 7.55769844185074 0.0 -6.331598780260453 4.184314963597917 0.0
277 1 13.617441780592218 17.89165440866267 0.0 5.704376413494924 -1.0572987903725688 0.0
278 2 9.016725896105868 4.091954253333649 0.0 4.754182768762201 1.4656962353043443 0.0
279 1 14.964354214331877 6.149158497775994 0.0 6.927450884911327 8.88335722929171 0.0
280 2 13.749935943934453 3.328121943336862 0.0 14.204920106446703 -1.1859775246054483 0.0
281 2 17.493151607726666 5.1336220503887455 0.0 0.3544509537800198 -6.219544870864491 0.0
282 1 14.665338111281516 10.91521789502795 0.0 -10.08158549275973 -5.47001019024711 0.0
283 2 12.563348594054812 16.798397916409655 0.0 -7.767838444687331 -0.17042444089152772 0.0
284 2 9.160497203907678 12.233448676536879 0.0 17.94278501444764 -0.3622426434662682 0.0
285 2 6.166540326739935 6.347623866005647 0.0 0.30501782069754485 -4.971479229441729 0.0
286 2 4.287031523204339 6.640658450824407 0.0 0.013915964180949807 -12.377311573511445 0.0
287 1 11.828880646098856 3.4563419250837764 0.0 2.1592287713709246 -10.158490538531844 0.0
288 1 3.2493754051696873 7.242645061615654 0.0 -13.172658007206698 2.1231427574034805 0.0
289 1 5.224463637014702 6.367501881289535 0.0 -4.531828749272977 -9.478937935061728 0.0
290 1 15.535952787483188 16.773132155167534 0.0 -11.174246699527991 2.639224057250699 0.0
291 1 0.4817971563747904 9.13462068139442 0.0 -11.997032848867704 4.732518875378509 0.0
292 2 2.158932858816355 4.342709378397307 0.0 7.50494971730816 -6.12918821178 0.0
293 1 14.319048856327562 8.088132194994808 0.0 -3.387753057948477 11.335100375720357 0.0
294 1 15.000441520125435 16.750591165314745 0.0 4.3914556055062715 -0.9330846395003706 0.0
295 1 11.489799950796431 11.17918970373988 0.0 -13.359102341857906 -7.183461406883265 0.0
296 1 11.911980992226097 16.3258392902848 0.0 6.668179509690274 6.19964729558726 0.0
297 1 3.9765772152209307 10.679505730111808 0.0 -9.896341209276757 -2.0504688461509426 0.0
298 1 18.86936316549134 1.15987275901586 0.0 -0.20286345523451035 2.149704879446491 0.0
299 2 2.8276774310199357 1.3914513536652042 0.0 2.115645449417683 -5.889266194224484 0.0
300 2 2.8081150648131907 2.3156626734333092 0.0 -8.108837909694051 2.1810803184871292 0.0
301 2 13.193692870820113 12.652617570500265 0.0 6.247766621220835 0.9613135711485324 0.0
302 2 11.1917680990412 15.055247642151732 0.0 8.763653288418327 4.34971323248101 0.0
303 2 7.480147103597222 15.083723778652512 0.0 -0.3980585140723861 15.807635234787464 0.0
304 2 5.414581656184954 12.919510975107737 0.0 7.021552286548782 9.587067892352513 0.0
305 2 8.345541372580982 7.881799594990946 0.0 -13.573924296506915 1.1662813112862094 0.0
306 2 10.821522454066704 1.803418749017217 0.0 1.9925885212400594 -3.126071128899163 0.0
307 2 12.312268698333718 12.532004517546158 0.0 -3.0924507844333915 -5.299209308801945 0.0
308 1 11.566460038797494 4.711572619449009 0.0 2.2863231771190473 0.6804152036014728 0.0
309 2 4.736979789184669 4.7880011593101175 0.0 11.399916622794173 -2.673566549824852 0.0
310 1 14.612536199812272 6.878835970924484 0.0 -9.70131702378044 0.9893864613573564 0.0
311 2 11.003157557426949 16.107088094927917 0.0 -2.615422383571699 -3.74208861032656 0.0
312 1 12.949690085415494 19.09873475906956 0.0 23.885579832396864 -11.470954243023629 0.0
313 1 12.170569779642063 11.529149687643427 0.0 -1.5472655351259261 -0.8722039049234661 0.0
314 2 5.794524189747463 5.058485092169799 0.0 3.0260593096957753 5.658790121376998 0.0
315 2 12.57359621108805 13.639009817825348 0.0 -4.630908774796291 -6.45556774930902 0.0
316 1 19.363521108369298 6.451993172588505 0.0 -3.670356460021086 -7.439897242729494 0.0
317 2 10.084297294770199 19.598193822114688 0.0 9.68222487360297 -11.647797839635986 0.0
318 2 2.5704466220632702 17.533595709956675 0.0 0.7237739086460694 4.674577677392364 0.0
319 1 18.37125585408376 10.30410333393732 0.0 -4.310145946808483 3.8387868619226824 0.0
320 2 17.079287230555025 10.134848534014903 0.0 -15.270357793038231 -0.14519725232964972 0.0
321 1 14.97001193982776 15.967216767619847 0.0 -5.427005508003029 -10.516469986509762 0.0
322 1 2.381868356720993 6.938771737272192 0.0 3.6259779372804757 5.493243893252021 0.0
323 1 4.947583967023536 14.630961999119627 0.0 13.400030643104262 7.0821458597143385 0.0
324 2 3.0230353771954337 3.3813052179257417 0.0 13.924964335518656 6.215622703318682 0.0
325 1 16.124623140427097 0.46270765381205897 0.0 -11.881016128519185 4.976069113314738 0.0
326 1 8.601863577541215 5.761913658102717 0.0 2.5771161547474555 12.820409694282464 0.0
327 2 4.175784594474541 17.48113199020878 0.0 2.11890489794349 -0.8141205706578654 0.0
328 1 4.398412318607996 14.879832914139946 0.0 6.6195949367162665 -3.6443369538931663 0.0
329 1 15.017245633864881 10.074006542069291 0.0 3.2007784595631956 7.944612522848607 0.0
330 2 13.551832787479364 9.181311479889512 0.0 -5.18948461388641 0.3062399974078385 0.0
331 2 17.278387988958354 11.770788192115807 0.0 -5.167515905588714 -5.363195457147831 0.0
332 2 1.8750392048836813 2.0843343913515873 0.0 12.694816676317974 -0.050626915752800435 0.0
333 1 13.104607236992836 18.57194782426078 0.0 -4.748947780196228 3.8737628665251584 0.0
334 1 5.686393105737546 16.079647437420395 0.0 -1.8823381584910384 0.5092443766967787 0.0
335 1 7.416249869776303 13.783854809796559 0.0 14.967523569590146 -6.899111732637881 0.0
336 1 7.845006200037857 16.187396194121806 0.0 7.87100647905708 -0.8653582486389126 0.0
337 2 11.350057643842932 1.0965196020645376 0.0 4.49643105588687 7.7770916321704116 0.0