ITEM: TIMESTEP
0
ITEM: NUMBER OF ATOMS
400
ITEM: BOX BOUNDS xy xz yz pp pp pp
0.0 19.7609 0.0
0.0 19.7609 0.0
0.0 10.0 0.0
ITEM: ATOMS id type x y z vx vy vz
1 1 4.557028669772965 19.0383785967973 0.0 -6.502530636312934 14.154282150196662 0.0
2 2 17.5229322961858 12.547020256281609 0.0 7.0125924349631745 -3.132147669303143 0.0
3 1 16.309188760750708 16.646668322283215 0.0 -10.779698847555213 -14.309934893951137 0.0
4 1 13.677439111708257 4.936806238140646 0.0 2.024104135156067 0.1354240042326729 0.0
5 1 6.072057060012463 11.215360519744886 0.0 6.828016342177757 4.953554781667161 0.0
6 2 13.750499268650158 9.130447878821103 0.0 -1.5953074247461723 -0.4232615431299338 0.0
7 2 10.457379585645567 15.993052451223802 0.0 5.670523490548372 3.89595468965998 0.0
8 1 10.19208819115487 3.675134886786314 0.0 -5.61696346954363 -1.522422733676358 0.0
9 2 18.42993354379004 5.91875716075868 0.0 -9.325855122092591 3.789956038813483 0.0
10 1 9.41967418310125 6.264170220140649 0.0 -5.336979740380653 -7.598838796660121 0.0
11 2 1.4849311437407617 3.964485622150572 0.0 -7.781801171498234 5.848918762390697 0.0
12 1 9.379065903697784 7.044818918138882 0.0 15.260453388505976 5.385589794279185 0.0
13 2 19.56424686513378 8.848573961984213 0.0 -3.950571716616031 6.443225581850694 0.0
14 2 10.690907662044388 19.75016540922421 0.0 -17.63070892827694 0.9504541202964729 0.0
15 2 1.011223893947889 10.135088390321641 0.0 -4.2356156333320225 1.249401240767941 0.0
16 1 19.323165481939032 13.476494139018063 0.0 8.87862316651576 -12.327148258981984 0.0
17 1 5.690486669108555 14.389879897662373 0.0 13.632324205316934 1.379084651865403 0.0
18 2 16.325015441482105 17.737952088572115 0.0 -3.4874013808704514 -1.6376315717718695 0.0
19 1 13.995161735811807 7.45327159066975 0.0 -8.344601399117764 -1.2357388204763187 0.0
20 1 15.36966564973045 3.0413224895095574 0.0 4.433425969260665 -1.8356600826460778 0.0
21 1 12.384115102939003 15.960242317812051 0.0 14.518099807266193 -2.4570078904076955 0.0
22 2 6.555360157386892 17.1481347638276 0.0 4.406551967315304 8.368164733055725 0.0
23 1 0.35216557495788225 14.271025270652853 0.0 6.199448065821326 9.8102799418372 0.0
24 1 17.165664465249566 18.499566074201365 0.0 1.8420800453415882 -4.972020909952537 0.0
25 1 16.455580198228134 10.06054015797155 0.0 -9.607784486603293 5.955516615837825 0.0
26 1 13.92720203660606 0.040091508475052405 0.0 12.825809613015478 -4.850302242765843 0.0
27 1 13.345506738887165 19.46790454095328 0.0 -2.3920299307479995 10.062162744768427 0.0
28 1 12.199070123996155 14.096089235893631 0.0 5.458345074647332 -10.320309745977442 0.0
29 2 10.996061491245374 5.739943404516311 0.0 -9.107261974034651 -3.1089325744692724 0.0
30 1 14.304709377090965 14.860739840957221 0.0 7.009436180962344 -2.7675794163379326 0.0
31 1 12.359882981947917 3.654293780626926 0.0 1.6478124102662692 1.082527906328908 0.0
32 2 2.5949314078974433 11.380845853525623 0.0 9.761050675841354 -8.629017244727862 0.0
33 1 17.02891690574623 16.672083843539912 0.0 -25.690083117053316 -4.041579234292476 0.0
34 1 10.217816032390756 5.985575796802323 0.0 -0.29257469533270725 3.187387701974195 0.0
35 1 18.596639024223943 14.691318704240048 0.0 -4.9939014713874705 -5.5142176708524 0.0
36 2 6.348361493569101 8.555158285495708 0.0 0.8581376941004416 8.50138754057328 0.0
37 1 12.304890746781483 1.7401121166344347 0.0 -10.07218041484965 -4.746161213333826 0.0
38 2 0.7853185045053211 8.73947654610494 0.0 4.519144698487832 -9.840971170283035 0.0
39 2 0.23511071817200024 2.387610395104492 0.0 2.193756778723016 -7.086928016131251 0.0
40 1 4.85670391682183 3.3319292659101905 0.0 -3.5922525453418337 -2.7966028139379673 0.0
41 2 8.802873846244488 13.955251935440872 0.0 0.9032810889310048 -5.131320032757863 0.0
42 1 18.816342029930244 3.858922401499174 0.0 12.313443101248426 8.64070967399102 0.0
43 1 3.1637644347307763 18.118536793178258 0.0 6.315494368010661 -0.3395638520478186 0.0
44 2 14.741862801905812 1.1728503182441863 0.0 5.567015597687519 9.817259605803923 0.0
45 1 15.728143801311118 11.307573033503836 0.0 9.611713740567266 10.741432246910584 0.0
46 1 11.42957418597644 9.76836170717944 0.0 5.787427910870011 7.503455611604182 0.0
47 2 16.183093885603167 19.224424602526177 0.0 -0.08867813328668693 -0.8298541640557597 0.0
48 2 7.730233183287533 15.802908683936892 0.0 -2.514268883819119 0.6763441975649774 0.0
49 1 0.08671562354231196 7.575980492905456 0.0 7.398616871395499 11.289379980036001 0.0
50 2 4.359333567935555 9.968712110696403 0.0 6.725336864523113 4.869110672705603 0.0
51 1 19.011078465250616 9.458750104279108 0.0 -7.58212145303675 -20.883408113143954 0.0
52 2 10.35016571217652 9.775922651743851 0.0 -1.306173198407529 1.2192357265707128 0.0
53 2 11.873800791454626 15.223903707607317 0.0 5.455186138312852 -0.05386712920502302 0.0
54 1 10.71201376678258 3.308276046708732 0.0 5.590062152461511 6.50655056469812 0.0
55 1 3.0019672754378197 13.783626458607248 0.0 2.520143899414535 -6.650339746699655 0.0
56 1 19.122144616816225 12.576576100286099 0.0 -1.0918679811884853 20.160302083457324 0.0
57 1 0.7085856490959885 13.667771904165782 0.0 -7.6956774619774535 -2.9597062911945535 0.0
58 2 11.407322523777138 19.331261784900946 0.0 -4.2830343567837055 1.1500522556910067 0.0
59 2 11.045130359579609 8.273838989919373 0.0 1.8586469704516668 3.621827246795949 0.0
60 1 2.1681803032098244 4.42273366392359 0.0 4.847947780732837 -6.537388813772736 0.0
61 2 15.502614152834058 0.6300256642266858 0.0 14.828937660742998 -1.6708443396193526 0.0
62 1 4.7421301580965896 3.8353560860643956 0.0 4.972285487302742 -9.88996388280848 0.0
63 1 1.8540033423456395 17.275758219827463 0.0 1.3022054592863876 4.04813762803654 0.0
64 2 8.878549135487255 1.9131451785340943 0.0 -6.804500431561387 4.648504352138964 0.0
65 1 16.02317125018303 10.710067448761954 0.0 8.837017357776867 3.780583702255874 0.0
66 2 16.857100816070346 7.847774545301272 0.0 4.000085112319021 2.860506371858242 0.0
67 1 9.828295750976004 10.943534676006877 0.0 3.8846352031759963 12.331133722370987 0.0
68 2 0.3042837004715172 3.308690352777866 0.0 -4.619564515659252 -1.5493805495551516 0.0
69 2 11.768976911878948 0.618214084819316 0.0 1.239472451566545 -13.31508700701899 0.0
70 1 11.883989203910373 9.541508535021588 0.0 13.49813094327799 -6.652976753073846 0.0
71 1 12.571897146010652 8.117695999106939 0.0 6.9685770914757414 -11.063033458206196 0.0
72 1 11.613474313571833 6.904449708142587 0.0 0.03260415297144198 7.658575308616577 0.0
73 1 15.353755077559885 19.530261608161034 0.0 13.158751114439516 -1.2957642401258 0.0
74 1 18.9319808919304 16.516175209904876 0.0 -5.909326167133714 2.5344417740844527 0.0
75 2 11.238286733716748 11.701627398202362 0.0 -5.510251143917972 -5.4485661419225995 0.0
76 1 15.57833797212337 7.659183283450196 0.0 -8.184623507248157 -9.035809751919004 0.0
77 1 8.069673292547753 0.6554457309565718 0.0 -4.337376388761958 4.310608581842582 0.0
78 2 9.613748780706791 12.69833345149748 0.0 -8.241110364174903 -3.10580225047196 0.0
79 1 14.99032789946808 11.641790752741985 0.0 11.275761616838587 5.971136993515446 0.0
80 2 9.82052260250993 17.87280471719096 0.0 5.675859362481628 -3.51274820688088 0.0
81 1 17.335076652824903 8.497092732935814 0.0 12.402089831388594 7.670294000549306 0.0
82 2 15.13238557257433 10.643650100585477 0.0 -2.436353886557442 -2.5026585097301806 0.0
83 1 7.041487118003104 1.362726115706116 0.0 -8.107547682260282 19.689587658048207 0.0
84 2 18.591820701021735 10.621243197251403 0.0 -1.3449301754412593 -6.340149890496208 0.0
85 1 2.0283978821744286 5.598751112119487 0.0 -7.589031583844435 -0.1906444246721181 0.0
86 1 10.701729185031661 17.881234711998175 0.0 -2.768558386652568 13.187851064665649 0.0
87 1 11.004994578797758 2.025698094771656 0.0 5.27890777601749 8.180061375098324 0.0
88 2 2.5905276375948096 6.41282468239213 0.0 -7.557117128908661 2.3194265965233924 0.0
89 1 15.266310856899436 12.510116388928058 0.0 6.094908006739945 -3.94956244502775 0.0
90 2 16.144253280880644 3.9921176165649936 0.0 11.884871732578505 -10.18759248443759 0.0
91 2 0.8931489058621334 11.014067167423358 0.0 1.5099810701633807 5.735469273291244 0.0
92 1 4.721678516945784 14.354484831313231 0.0 -0.04557046542388352 7.834127701394828 0.0
93 1 16.269519908429544 14.706679541994175 0.0 -3.398082101776705 12.543700549672787 0.0
94 1 5.744927273075518 9.101047709634443 0.0 5.226085255123412 -3.689491685763555 0.0
95 2 16.946810083251627 9.314616129932734 0.0 -8.298589094341688 5.552266789737413 0.0
96 2 1.7351000688402272 6.365584270943583 0.0 -0.7223039065241046 3.415886947477947 0.0
97 1 8.012811484869959 18.850071798797607 0.0 -12.933704256528078 -8.91287930132099 0.0
98 2 0.007759770584561518 16.532930755085232 0.0 -1.3411814604844665 -3.0937434833425237 0.0
99 1 14.50087845406555 7.196463373528254 0.0 -7.465399947681671 -4.155984025850736 0.0
100 1 17.779716195631195 18.496731965059908 0.0 -3.2037859694819995 -10.522031082197607 0.0
101 1 6.346447294464964 0.8147336717241789 0.0 -4.341100443794006 -19.194892190858326 0.0
102 1 1.4391639099877982 9.272766671278067 0.0 -4.304370093566391 2.256157412407412 0.0
103 1 6.828927797629177 0.5295777614304846 0.0 -1.9814535478179671 11.185198306073787 0.0
104 2 9.488676615633167 2.6535255710253507 0.0 0.22450563070742274 9.322802380163525 0.0
105 1 19.053242020841573 12.017258898286693 0.0 -3.4787385501931576 -8.003500373650557 0.0
106 1 10.586254388361677 14.364355194667985 0.0 14.242705274350612 -0.8563902403846039 0.0
107 1 18.840899809235108 9.915400342379376 0.0 0.11716255415737999 -7.935919006415807 0.0
108 2 16.45522434295203 13.028585602268576 0.0 2.0617011149984017 3.9813171222329253 0.0
109 1 0.6650826737902011 5.082300683421674 0.0 -3.608858843758025 -14.209271565307128 0.0
110 2 5.245451093112735 2.1911499858956898 0.0 5.290407203653888 -2.029316716520688 0.0
111 1 1.1111223766446061 17.024936562778443 0.0 1.530459971947226 7.501143474431369 0.0
112 1 17.57526517170112 18.018006308189655 0.0 5.771678561424117 -7.957806610284158 0.0
113 1 1.025385879654347 14.11921105892087 0.0 8.55121655963186 3.324487740331371 0.0
114 1 12.323265888183677 4.36895224666155 0.0 -14.386934731827749 -0.8334683549213987 0.0
115 1 5.669676902813187 2.9715180787163975 0.0 -5.308346618809763 -5.23908750890441 0.0
116 2 4.026337639984398 6.815271905244315 0.0 -6.503523323103472 -3.851933520610153 0.0
117 2 2.0050511861723197 10.139893385318823 0.0 -5.944348573151842 2.714170098125086 0.0
118 1 4.319547108264896 5.752218304370231 0.0 -13.250997306113117 6.725856072360469 0.0
119 1 13.298038385025425 18.904744368772285 0.0 -13.8889565060788 -8.996771749464777 0.0
120 2 3.8593671374988228 17.009397421039093 0.0 -1.912241855894739 6.018414495292667 0.0
121 2 10.547814689986454 18.717753010383316 0.0 -4.936264605104607 0.7926761685449635 0.0
122 1 11.23520803295357 7.313322377430121 0.0 0.9561333268918615 12.545288343874603 0.0
123 2 3.186040035224946 0.33406229036261004 0.0 1.2937165557565222 2.319177574951217 0.0
124 2 17.210399741064514 15.624639319295232 0.0 7.402516557937129 -6.632483438788282 0.0
125 2 3.3193835089831483 3.392088936165619 0.0 2.3928881823160704 1.275026671196297 0.0
126 2 6.919456962520025 18.40103576239063 0.0 -5.518153979496488 0.5525404188576049 0.0
127 2 16.461701951920297 0.40893024058547894 0.0 3.6977464111975564 0.05796919926543989 0.0
128 2 2.8459030501052847 7.625984759338811 0.0 4.432533371509427 -1.9197533222573422 0.0
129 2 19.06080361657922 2.963865202372703 0.0 1.0478790040474384 -1.4445338852354292 0.0
130 1 17.754021580724366 9.147899592416136 0.0 5.3045217596900125 6.114243130966261 0.0
131 1 4.984620612004319 5.656637479376266 0.0 3.0678672055953453 2.3956692900463046 0.0
132 1 16.894639772474978 5.694548829383892 0.0 -0.7966845231658916 -2.2110481176421755 0.0
133 2 13.306698096731106 15.868425142788066 0.0 -9.838270798234843 2.981254594634378 0.0
134 2 3.6697732297036048 2.324195937347393 0.0 -3.0764479648248453 7.458714151963869 0.0
135 2 0.015228378942901428 0.19954505212718557 0.0 -5.622013519495065 -1.1307262566738143 0.0
136 1 7.362745198617555 6.913672512549299 0.0 0.7617569207417787 1.2810647552317624 0.0
137 2 8.254157975773012 5.198389840704339 0.0 -2.9141378182102913 6.097542439637393 0.0
138 1 14.421184551412548 3.544814813030696 0.0 -7.817820335548069 9.342495969602808 0.0
139 1 1.1312692099723243 2.976214531304388 0.0 -5.62879069515288 5.243188498442028 0.0
140 2 1.4968043846596477 11.739657120507337 0.0 11.122120014103821 -3.3699205492472384 0.0
141 2 12.879751756734903 16.548808551434362 0.0 -5.002262680674226 -5.491988600417168 0.0
142 2 15.24629599205922 9.489287400926697 0.0 5.270064610307026 3.1947714009507955 0.0
143 1 6.728010048442963 2.9685111026098863 0.0 10.621597464323207 3.1141625854207273 0.0
144 1 16.00827659627959 12.288434805589262 0.0 6.362686946775818 -5.231300263017714 0.0
145 1 18.39806461993344 9.59994634233622 0.0 7.712579956613111 -11.991052956909726 0.0
146 2 1.5052316235780787 8.205842555382375 0.0 -3.754136262955046 -9.959594146110662 0.0
147 2 12.909783838540582 12.740743671755384 0.0 -0.9874415534618783 -0.9728043427908882 0.0
148 2 1.6251041560402768 18.87469679928266 0.0 -11.642985547784154 -2.0482703585364517 0.0
149 2 6.344901238718253 14.909332902986376 0.0 -3.207369875207301 5.67931433962249 0.0
150 2 9.297666586836641 8.227581834154035 0.0 -0.024574183677087368 5.173268575887456 0.0
151 2 12.158167793303324 2.6234237245377505 0.0 -14.824789616544722 -4.004419590989476 0.0
152 1 5.5248250956033464 11.360525144595302 0.0 -2.414532709157062 4.387604849140018 0.0
153 2 12.97311942548816 6.940829034742371 0.0 4.369045818968517 4.494074431798436 0.0
154 2 15.32625686097755 6.708275636504572 0.0 -2.499435398379514 1.6641961761013844 0.0
155 1 1.9165025059425405 10.957945318071811 0.0 0.11946827603300605 -4.113017861543483 0.0
156 1 2.246110454321559 14.3031287137724 0.0 -6.781397529010432 -7.246401322482585 0.0
157 2 8.500870308641971 6.263143584603482 0.0 -6.793232041880997 4.974615250954184 0.0
158 2 3.4082114601648583 15.818669934547044 0.0 9.823190686246717 0.9382678919899379 0.0
159 1 3.8807841066323876 18.929046783915275 0.0 5.131791110346681 1.460307897999853 0.0
160 1 2.715813060063822 15.161247244597066 0.0 -5.7651726854304055 -5.647217824668303 0.0
161 2 16.759437472714065 6.67357682086454 0.0 2.4440431036224552 -7.224408094574215 0.0
162 1 17.331675958895634 13.261313049355481 0.0 -0.13800030040701944 2.6613192423779872 0.0
163 2 9.706795323412445 1.4203926830677003 0.0 3.2511498624259128 -5.934023825404 0.0
164 1 19.280879914827764 15.143700803731363 0.0 0.03512425965854886 -5.669955412730293 0.0
165 2 2.5423951934649027 19.16313662160039 0.0 4.207481357854626 11.408533771554126 0.0
166 1 1.339540684729457 16.0670701270723 0.0 3.5425236262042445 9.262653997087854 0.0
167 2 15.344585716829437 5.84326490680013 0.0 -5.369183580011994 1.6250543794817731 0.0
168 1 3.8118553144108502 1.4728851824520297 0.0 -6.150770271182134 10.101536707801328 0.0
169 1 2.516153779756825 13.502003252774282 0.0 -13.76780857091756 2.5181345849766776 0.0
170 1 19.069746395901106 1.104201095467203 0.0 1.4477867847179182 -3.6375555201985694 0.0
171 1 11.72383445374365 3.961687060920777 0.0 1.573162285865048 2.963846176148012 0.0
172 1 17.486504900423167 17.349629351538173 0.0 0.24341102495616604 -3.5728571864962007 0.0
173 2 3.3201904046588484 4.2739548606304405 0.0 -6.064119822676155 2.319846344103409 0.0
174 1 5.546268669832519 17.704403794921575 0.0 -10.439787354309967 6.446743258766745 0.0
175 2 12.360768022671566 11.115304144246915 0.0 4.712678450213536 -7.908407964118246 0.0
176 2 17.427777712479788 4.585203044252571 0.0 3.041998773317562 1.2188973244613204 0.0
177 1 2.071632418216225 2.976978888795158 0.0 8.591978816186048 6.138542548347868 0.0
178 1 6.808457817871992 14.265188294018968 0.0 -0.5613274559004747 3.7197319249583694 0.0
179 2 5.509766852090203 16.782621748101533 0.0 -6.604894652854287 -6.144775265839054 0.0
180 2 15.62658064115866 16.169182855230236 0.0 -9.069919601734 1.6688338557759568 0.0
181 1 5.892350543540905 5.925023481858912 0.0 9.14316429809525 -6.7261987720483924 0.0
182 2 16.30073731191347 1.8165188364190528 0.0 -4.020545837928004 0.6550121097954511 0.0
183 1 0.46141908288318056 4.31888618054355 0.0 15.19148017777454 -17.309872408025605 0.0
184 1 7.147096915217095 12.760800263257664 0.0 6.455553062552674 12.314408283826735 0.0
185 1 8.17484909697142 10.463856391450278 0.0 10.13815017549758 -7.9739039206475715 0.0
186 1 16.895204792563668 5.185003605351006 0.0 -15.254626581234515 0.8150782610341973 0.0
187 1 11.214163194989814 3.2843908887112794 0.0 3.246475219432659 -10.49893549937678 0.0
188 1 15.508241744503417 8.36627795144302 0.0 4.616275338771984 -1.2026524168096517 0.0
189 2 5.201910559622012 18.66315881164682 0.0 11.197973887894184 2.5818292626314525 0.0
190 1 11.965737171322184 8.767901339702743 0.0 2.6466128684309784 13.591881907209066 0.0
191 2 13.813843804737672 17.241590103240917 0.0 12.452444340459968 -2.7432577374243214 0.0
192 2 9.090208739615298 9.460670353678593 0.0 -6.631435194740047 -0.926554530088827 0.0
193 1 7.430342294203179 5.374375556173662 0.0 -1.6299498203865825 -3.224378190724865 0.0
194 1 12.47399442310666 17.176871762561408 0.0 8.219685132559995 10.817035301870318 0.0
195 2 10.844958094275848 10.74034867096118 0.0 1.5297082798002075 1.3115015539003552 0.0
196 1 8.122780749170378 9.384320048101674 0.0 -15.353906869378143 3.5773565638222085 0.0
197 1 19.737023768640466 6.402742150686246 0.0 -0.8798782241706989 -6.791503556528645 0.0
198 2 16.327639297237976 8.648349791738275 0.0 -15.319072017629193 -2.2978161059122773 0.0
199 2 17.425607121573464 11.368844295609735 0.0 12.303528352047538 -0.668780506722152 0.0
200 1 14.358199339153803 4.394094356737602 0.0 -8.94767381478768 -8.01056924082857 0.0
201 2 9.067364513436024 18.434241373173446 0.0 0.519785040602569 -7.506123820636233 0.0
202 2 15.183698485982896 17.124493706998486 0.0 -9.903911628514566 1.4344855584306102 0.0
203 2 13.96070057258271 1.7587818938591941 0.0 -3.6213627570576867 -0.37483004856005187 0.0
204 1 0.7805217250656025 7.309036647578183 0.0 -1.4962595224690092 -11.666277143363855 0.0
205 2 17.958248635019576 1.341817032599196 0.0 4.52197439594922 8.372245186772739 0.0
206 1 18.266656356424225 4.141929069870955 0.0 2.5027619442657247 12.828183842877895 0.0
207 1 14.86410689463924 4.731082789739674 0.0 4.0553066740455215 -10.83111058533749 0.0
208 2 12.903218206460014 18.0840968009705 0.0 4.975861884337869 5.1149378118395665 0.0
209 1 10.395452631042538 13.024473870358745 0.0 5.561980389980681 11.037805949974247 0.0
210 1 3.8122962667909905 18.291904379316122 0.0 0.6328352474349194 8.466690338104634 0.0
211 1 18.54403736539083 8.53981001478839 0.0 4.01036927558268 1.8416166941508632 0.0
212 1 13.085461982072403 8.59563555798103 0.0 -6.425718081008536 6.174626000381953 0.0
213 2 10.434497465710507 12.220074756394432 0.0 -0.4358442203030393 -3.046093158016613 0.0
214 1 1.1826784821343326 13.19509089751675 0.0 -0.1625150204175404 -9.469462611340917 0.0
215 1 7.025530391448316 3.541824094643454 0.0 -1.5848936749179419 -0.44713159070164227 0.0
216 1 14.540990362442269 15.64039599340974 0.0 10.19453396175044 -4.2912737251523385 0.0
217 1 12.138371528701114 12.17741848224873 0.0 -2.9426775752018575 -0.22031044979779033 0.0
218 1 7.01307432061443 2.589249120288541 0.0 6.711763696442033 3.494029627627264 0.0
219 1 1.8583410417393442 8.913847067578464 0.0 4.056658678778956 -6.452668297392439 0.0
220 1 2.440914897991358 3.7342667129883926 0.0 6.191900199168236 7.981493440222646 0.0
221 2 19.582528703610308 19.01045649296687 0.0 -0.007920491676507773 -3.617287752374277 0.0
222 2 3.7958458029619653 12.312034402489841 0.0 7.884243817361178 -3.8539932473729897 0.0
223 1 16.270839438966206 5.383872410976973 0.0 0.23546161639226584 7.989187038925161 0.0
224 1 8.315934868184154 3.7817841436989608 0.0 20.004742467939188 -4.938693458696382 0.0
225 1 5.843274198848131 3.574512953274714 0.0 -13.286501091278739 22.4123688752878 0.0
226 1 19.690890306174804 7.009381469244358 0.0 -7.0217616800315135 -1.83354237727214 0.0
227 1 12.798091604895271 19.313992130325307 0.0 -3.4293278363899633 -11.860623603853263 0.0
228 1 6.097866677138654 18.096798397090197 0.0 -1.0690664916664827 3.0182332303623887 0.0
229 2 15.013499563820842 14.052850596339248 0.0 7.527227499169447 -9.304643399749024 0.0
230 1 1.8972466180922947 15.247784381710899 0.0 -2.1679579358200916 -4.218019449368873 0.0
231 1 14.050520816191868 0.6058614222446694 0.0 0.19413656510037205 10.817827674525063 0.0
232 2 9.34787245578788 4.072589798790291 0.0 1.4362505365681193 -3.276882781299671 0.0
233 2 16.92334207079391 3.6009927636830046 0.0 -2.1673064679690808 7.367759687822936 0.0
234 1 6.6473342848822305 3.8534977790378444 0.0 -1.6111889002971698 -0.5134787419895468 0.0
235 1 5.418317235144538 10.46642417489632 0.0 -12.774228805963125 -19.281702634954193 0.0
236 1 0.4550573026053682 8.009820139948005 0.0 -6.444632047883928 14.825005547631168 0.0
237 2 1.0183695687410637 0.4943352121117193 0.0 3.5665592025271127 -7.596409501630466 0.0
238 2 18.75776377124806 6.737516281574353 0.0 -2.9445938247770704 -2.1958893401768442 0.0
239 1 18.92693992726836 4.383541451458947 0.0 1.06468829924859 -4.621444415981727 0.0
240 1 17.264586947740373 14.47420674144018 0.0 1.8576353380233388 -10.991832122172106 0.0
241 1 8.867953643662542 15.607418766267186 0.0 -7.805712118042854 2.8077310033312988 0.0
242 2 7.000640485784621 4.686024248156357 0.0 -4.258637352914622 -0.5260855730422069 0.0
243 1 18.48194003607292 13.818941638497456 0.0 -1.4014995003022082 4.358459506244148 0.0
244 2 9.611312373135966 14.143553574980386 0.0 0.47859428413628946 -0.45460187953414366 0.0
245 2 18.916084329459544 7.5890990858554765 0.0 2.140102571720968 0.5399662294352574 0.0
246 2 8.615342934582985 8.695889766948941 0.0 -10.90459061543676 0.8421046647777864 0.0
247 1 15.187897538418795 15.28395950426392 0.0 3.533535569139472 -3.3705316348123975 0.0
248 2 13.134300114358531 10.263550637423844 0.0 -1.732356314608043 -1.250252741299133 0.0
249 2 8.791859824389235 17.031537741003255 0.0 -1.7775771476047335 -8.495565465296341 0.0
250 2 7.339978540155679 16.881142547249052 0.0 6.218965929442196 6.648363588920303 0.0
251 1 19.536725664338533 12.86434067951129 0.0 -0.4439538512599315 -5.990921427584439 0.0
252 2 6.716168914421836 11.888513622512557 0.0 -7.783102227595004 0.6439829270299986 0.0
253 1 17.890875951357316 6.422345108285488 0.0 -5.146817645429889 0.5049006038429196 0.0
254 1 13.08718551095329 7.9083308493933115 0.0 -4.864921174506768 -3.5271531999095047 0.0
255 1 15.78419765427945 14.914195759282938 0.0 4.979796304692839 -4.080711842792453 0.0
256 2 7.329009783983397 8.975345494489725 0.0 9.899360606298348 -0.5060360216061 0.0
257 1 4.5401836662904325 8.240445341601882 0.0 -6.551155642169325 8.399600496027128 0.0
258 2 3.3899365545193416 5.571618922580336 0.0 -4.053468281938708 -11.406717962543455 0.0
259 2 7.435599455848187 9.857233113821529 0.0 9.367251593846916 5.143891547382901 0.0
260 2 14.38251634379145 9.866208668242937 0.0 1.2243458788877881 -9.898056233746528 0.0
261 2 13.77330396389444 5.936401053610396 0.0 3.182006491832915 5.813750224641054 0.0
262 1 8.012097319210465 11.493845019933731 0.0 -1.3693206296109146 1.7634373054163295 0.0
263 2 11.470510041890961 12.641547706692636 0.0 8.74904095641248 -3.8621203498232277 0.0
264 2 17.788462982516883 10.12389163432321 0.0 6.697284346168739 1.0851924092113292 0.0
265 1 5.327036513432266 8.665112527760872 0.0 10.234058892282986 9.363497286204138 0.0
266 2 6.497880888889983 19.242195577488577 0.0 1.477385873671345 5.024131090232605 0.0
267 2 17.200708744338232 2.3079040252336727 0.0 8.363815575784177 -11.08504058791676 0.0
268 1 7.36232312626599 13.384828979783798 0.0 13.352003570857558 -5.682582908268286 0.0
269 2 11.668897414116044 5.093309350364095 0.0 -1.182623545950033 -5.393555487882533 0.0
270 2 10.029656749500223 8.929041856029663 0.0 0.6412429383955397 -0.2111691173031229 0.0
271 2 13.333594143265266 13.728888325440609 0.0 -2.6644241659670844 -4.275577532952815 0.0
272 1 14.104289883491319 5.293361622398189 0.0 8.788794271643576 -2.1366380741938373 0.0
273 2 5.796199116836481 19.65512687909433 0.0 0.06662782789982975 8.436228607929786 0.0
274 2 19.439736059906586 5.734798637704883 0.0 0.6085674673430176 -9.173196591934166 0.0
275 1 10.772259804782145 4.059841949855195 0.0 -0.5941445924088568 15.771525521654757 0.0
276 1 12.81378693020204 0.29578962610440906 0.0 -11.406159428199002 7.865164941887402 0.0
277 1 4.865233135647396 11.637066972935957 0.0 0.31290472830785854 -6.98053602681365 0.0
278 2 7.936813655514756 17.871984062163083 0.0 1.7470073273501414 2.091812436354107 0.0
279 1 3.564667842995954 11.22789655548407 0.0 -5.630085412922143 -6.108414820327692 0.0
280 2 1.321236740616036 1.5080545091878206 0.0 6.267594554374048 -3.2602544080114555 0.0
281 2 14.200359355956719 13.461772508435745 0.0 -4.710407246107916 3.9313176329456327 0.0
282 1 2.89548537278886 17.26400221169709 0.0 4.601515454251203 -0.09029893727370396 0.0
283 2 15.700763887956567 4.796159781542331 0.0 4.5066204195117185 -1.6935429993215854 0.0
284 2 5.476005360565495 4.783908291132302 0.0 -2.9934402836022964 -4.074883556384918 0.0
285 2 6.91117908025578 10.955025459023144 0.0 0.9702848414045557 -0.19902856541838132 0.0
286 2 19.145643248176103 18.182509279376195 0.0 -4.736286995002637 2.0620706940015174 0.0
287 1 7.5035009132741415 11.709505402743092 0.0 -1.01979153208586 0.5908590458680403 0.0
288 1 6.579721199027668 6.113836393634671 0.0 17.777690492754736 6.196780103787812 0.0
289 1 10.401286771392003 4.611671462305005 0.0 1.7259539269585227 19.90411336634477 0.0
290 1 7.325805289509759 14.891455148890905 0.0 -0.8825647837632552 -11.554483389895617 0.0
291 1 2.4987374191245286 2.051757117325888 0.0 4.34580603416921 -3.28819940350201 0.0
292 2 15.16757068508236 18.115678578155798 0.0 8.692620548425946 2.0743768400182225 0.0
293 1 16.337518502755987 15.652106438104251 0.0 1.3980153132716795 -10.17481247393732 0.0
294 1 4.57368266437094 1.6737584503639458 0.0 -3.1236025519967843 -0.6029094003752046 0.0
295 1 11.708032142527184 10.63326918579542 0.0 2.425072707790905 2.220588452817239 0.0
296 1 18.261650914334684 16.30891305174005 0.0 -7.727918561744407 -7.335883748023508 0.0
297 1 5.5734510512186395 9.653052576236615 0.0 -8.623346923940758 -9.212172493995665 0.0
298 1 18.034677827783025 19.75162382205438 0.0 -8.808952997026948 -0.11429627544620125 0.0
299 2 4.63407809747171 16.112136710271518 0.0 4.673294112963988 2.16974672808618 0.0
300 2 10.729520284468927 1.2260611287382936 0.0 -4.684810684724635 -1.2498834161279517 0.0
301 2 6.413140121098926 10.138896401861208 0.0 -0.17471252150537628 -4.147553964623756 0.0
302 2 3.6226020897355498 13.332366084189408 0.0 -2.2054322076010666 1.0167894760357368 0.0
303 2 5.560892904231887 6.801611910884922 0.0 3.9130869624411786 -0.2903521161256343 0.0
304 2 14.45835793980459 18.748067921328545 0.0 -4.545001600558509 0.5911732544993479 0.0
305 2 3.759934099138272 9.24239055422108 0.0 4.0663718607600305 -14.771353513467892 0.0
306 2 1.825963357113503 7.361298770620666 0.0 2.0332951905514913 9.126978941917613 0.0
307 2 4.266290878902151 0.761671951821204 0.0 3.2793925574222764 2.4632454155851016 0.0
308 1 14.043757986985748 11.693827727413106 0.0 3.9729856725292603 18.80595345244668 0.0
309 2 4.391285212433003 4.738889706264373 0.0 -6.999428770181191 4.504292548175236 0.0
310 1 7.816418575287252 12.917283314811446 0.0 -10.54646467125138 -1.9847841435777323 0.0
311 2 17.83782134874309 14.933116216029013 0.0 1.3458009593592932 -11.552934126964214 0.0
312 1 8.081531322504507 11.009001124042374 0.0 5.722943706376073 4.321053212334806 0.0
313 1 2.069447700269369 0.47861143304109033 0.0 5.634219789784123 -6.62745221948113 0.0
314 2 8.288097516985319 7.715316537507618 0.0 -2.76788019990457 -2.5682204975226464 0.0
315 2 3.110142922700135 8.483052019005292 0.0 -6.777427640976903 -0.8104889161598494 0.0
316 1 2.407104692670944 8.838619738358403 0.0 -8.760999145240335 -0.7445409586226915 0.0
317 2 1.799085981284834 12.820793153330499 0.0 -7.2591878784298896 2.1070111429484317 0.0
318 2 7.422644357838026 7.932972210707727 0.0 -0.6201096489135652 -3.633683363055912 0.0
319 1 4.858174216795172 14.783408897340935 0.0 -2.803497158343257 3.0630689629813053 0.0
320 2 2.2233552085339565 1.2464877581923532 0.0 1.0853400541618892 2.1159515707879466 0.0
321 1 13.910866347942534 12.26059141055698 0.0 1.4688103621447177 8.22349708513999 0.0
322 1 5.2217137984478255 9.317539371260786 0.0 6.693032152576946 0.7700554190258784 0.0
323 1 2.902193723522297 16.729351257145606 0.0 -1.9665795219943292 2.688769967679114 0.0
324 2 11.38150189011679 13.574617928513389 0.0 1.1836057030441554 -1.078881584307731 0.0
325 1 6.537089832525082 15.773526077274983 0.0 -2.5470203953773507 6.1493111570677605 0.0
326 1 5.04433797595755 6.132823364861847 0.0 -5.578179568020595 -5.322492703543538 0.0
327 2 12.388365862341159 5.695003272897589 0.0 -0.15294017984788455 4.883972173487686 0.0
328 1 17.28057526248733 13.85592793291057 0.0 -8.136489025518447 10.91015029244373 0.0
329 1 1.0075605932496112 16.424924948029744 0.0 -12.29705753137918 16.09116492667127 0.0
330 2 1.444935708845536 17.949043758225546 0.0 -4.956350695118495 2.0839985327852073 0.0
331 2 0.9581304616840559 14.980114638238915 0.0 3.677573725159505 -8.369815175129107 0.0
332 2 9.685989193749316 0.4408974737640512 0.0 1.0571560740556598 -10.137722611773333 0.0
333 1 18.193376072948315 18.717775340207453 0.0 0.3251630114756608 15.493391382152515 0.0
334 1 9.571908288921792 10.237504803197606 0.0 2.2727305441262513 -13.640900459066447 0.0
335 1 10.894674061893415 17.06184467719879 0.0 -16.268508646456105 0.9575232113743869 0.0
336 1 19.5143594003132 13.888253148316686 0.0 -10.009636088130529 -13.625116695872377 0.0
337 2 5.075242761159866 12.935159230014003 0.0 18.074262481061915 -4.158472399231677 0.0