ITEM: TIMESTEP
0
ITEM: NUMBER OF ATOMS
400
ITEM: BOX BOUNDS xy xz yz pp pp pp
0.0 19.7609 0.0
0.0 19.7609 0.0
0.0 10.0 0.0
ITEM: ATOMS id type x y z vx vy vz
1 1 5.247479704121031 17.910802209435477 0.0 19.582085806212973 -0.8043254546774105 0.0
2 2 14.055049641357733 1.1397480174116257 0.0 -3.2662832261681167 -0.46408760624743545 0.0
3 1 7.193347916921128 2.7532202035377775 0.0 21.52951680028624 -5.931778065793318 0.0
4 1 7.071608275787995 11.757743574466241 0.0 4.515575830437023 -1.2842112371073398 0.0
5 1 7.132423829297621 12.294298920435706 0.0 -0.4829823387473633 -3.1167315220549527 0.0
6 2 6.087476546486372 5.384790945210892 0.0 -7.1398276875295545 -4.402566606113747 0.0
7 2 14.710617701192465 17.99496943156481 0.0 7.683654960194481 -17.562667495476692 0.0
8 1 14.820940542909867 6.128408467443642 0.0 10.888770937286269 5.42950940647732 0.0
9 2 9.667325555843057 9.362762203850107 0.0 -3.2066107023709844 1.12907500396048 0.0
10 1 6.706296872584639 7.179458190978072 0.0 6.188138855864317 2.4626733723896908 0.0
11 2 12.586752782596319 7.098274637363314 0.0 -10.078618525679342 9.812296841962853 0.0
12 1 3.9958424923500764 17.90553790520834 0.0 -0.11337418945590017 17.308129281115153 0.0
13 2 11.008779773528044 13.41938045909554 0.0 5.017208823396234 -1.599514367881974 0.0
14 2 18.311889016735133 12.265668183406872 0.0 -2.8660090110115766 -0.8184501940212842 0.0
15 2 2.6562059650401495 12.067997782062362 0.0 12.20802718022904 0.20708915993045834 0.0
16 1 19.629786724131066 18.548825280928803 0.0 11.077983337527263 2.2554856002278676 0.0
17 1 17.631428465290124 19.433542637350456 0.0 -3.2535750383041684 -6.933895154994407 0.0
18 2 0.601047517351737 6.1226213346123215 0.0 3.547330158567416 -9.596084372873717 0.0
19 1 14.558076930676751 1.721732471199293 0.0 1.9921908953329013 6.066365621515756 0.0
20 1 1.3184340116268425 1.3305511774486838 0.0 -1.334223428279629 4.450508868758944 0.0
21 1 10.433426355185386 2.5256052001525195 0.0 16.39743663191958 -14.414359674818334 0.0
22 2 0.13738395551820828 9.628473348541956 0.0 -3.0752883875645507 3.9874468395318745 0.0
23 1 0.8269618368413199 17.27114166775737 0.0 -2.6742615266349388 -9.739279622621476 0.0
24 1 12.508297537250318 6.086266593606828 0.0 -5.5480417387398955 2.0678537510911954 0.0
25 1 18.019114325064685 0.9325623984234795 0.0 4.408005398260437 -12.015027637364048 0.0
26 1 18.29268068267011 7.0357854857762305 0.0 -1.3918422753766628 -0.4830145041946763 0.0
27 1 6.585378519974268 8.964397305493979 0.0 3.665304840007505 0.060362045797224075 0.0
28 1 17.49254787818909 12.576821831268656 0.0 7.561642279554161 -8.13971095290452 0.0
29 2 16.57956330626629 5.259714788319294 0.0 -5.694955739516289 1.5425854454260841 0.0
30 1 14.1759156531959 8.413156021436516 0.0 -1.6108085628468345 -1.1393352465937643 0.0
31 1 9.7270156770139 10.466276439692635 0.0 4.408487117511695 6.137837876825087 0.0
32 2 4.261655968412512 3.4741398000734236 0.0 -0.5188083369408417 -5.386321029327292 0.0
33 1 17.2182981531787 10.811262724644704 0.0 -8.12752726122501 -4.253822405135523 0.0
34 1 3.5105006534078758 17.807305155281195 0.0 2.6702853856314475 -15.098154595666756 0.0
35 1 7.2826770808927535 10.021294366405076 0.0 -17.96559957862018 -4.645493600381598 0.0
36 2 2.5992995272461146 10.949245055401484 0.0 1.5008276458432603 -9.33928237452683 0.0
37 1 15.627070690506693 16.69829099623161 0.0 7.194970116389447 -5.268868108936602 0.0
38 2 1.3349422155923953 17.821730694495102 0.0 -8.763388240942438 -8.833043074762825 0.0
39 2 9.857826666288735 15.792119408457127 0.0 1.296369087519839 6.9650469684764875 0.0
40 1 9.668916503631593 3.093292957412515 0.0 2.232232139079217 -7.4231809070056505 0.0
41 2 2.0921325777842323 15.11497054521891 0.0 -5.823128142757017 -5.032185478255746 0.0
42 1 3.3074878176890965 6.610393741385348 0.0 -11.618761946982705 -11.619415093391336 0.0
43 1 6.305705601582007 11.433824114155643 0.0 3.254345308367135 13.290177794353479 0.0
44 2 5.068777494113985 1.5604213827191626 0.0 -3.9807624106979587 -11.099160458391548 0.0
45 1 18.69820669805155 16.801697039965806 0.0 -3.393423950646436 4.023759380396258 0.0
46 1 14.653578622893484 2.429696803961108 0.0 -9.405665454946256 5.906240991351022 0.0
47 2 1.70852946669574 19.484554949505103 0.0 -0.028657382071781284 7.299902855015887 0.0
48 2 16.442995335268478 1.909209717142015 0.0 -2.3508613422913385 7.882836544984931 0.0
49 1 10.593148637035846 8.188836519285536 0.0 5.251217152274449 -1.1556302452173408 0.0
50 2 0.8554363484490264 2.6685777182522528 0.0 -5.862483809971975 8.6981522587146 0.0
51 1 16.156665426893163 10.918799253892946 0.0 -4.792132477564947 3.81459312046037 0.0
52 2 5.321170362153193 7.80932661100383 0.0 9.544147319715838 1.5776832276083577 0.0
53 2 1.4905227121974352 11.337039152936471 0.0 4.356947042499189 -4.0753310848653985 0.0
54 1 5.290486627978812 4.770123205538604 0.0 -11.0418080901304 9.919840783602783 0.0
55 1 5.228758392171538 10.514932819040325 0.0 3.641135145649081 -2.15825263889985 0.0
56 1 16.48663959418313 9.19762356773988 0.0 1.6738335820722432 13.956344438592541 0.0
57 1 15.661700935037917 17.277330594631977 0.0 2.3128392143328846 13.494595706503983 0.0
58 2 8.805350566092258 19.084146999461453 0.0 2.220884540675186 -11.97846686948619 0.0
59 2 17.08796176555931 18.623674508524832 0.0 -11.636418904901744 2.713442075656235 0.0
60 1 7.03128063580057 0.07321918847777363 0.0 -14.206377395279587 -5.006017622232419 0.0
61 2 7.966784145619124 17.650099940767912 0.0 7.727989221346174 3.9516552064870174 0.0
62 1 18.673396092480512 17.240678439742304 0.0 -4.134292234006465 -3.707784521084286 0.0
63 1 17.941417613859397 14.792097418790021 0.0 2.8359460883655143 2.5815917084357958 0.0
64 2 12.999491705202441 16.21266869414992 0.0 -2.233353517818611 -1.5712218636056785 0.0
65 1 12.00974956695026 19.289737406911513 0.0 -11.925565425418897 -6.038268177327154 0.0
66 2 8.826474683549469 11.142940724953487 0.0 4.391162049827839 -1.1326469962452752 0.0
67 1 8.520255798095507 6.760332752369297 0.0 -9.528454337943073 1.7512864453116643 0.0
68 2 15.39238260340374 1.7239515758956634 0.0 1.2684399637912147 -9.94650590170048 0.0
69 2 9.912671571264692 12.923919742720253 0.0 12.461708916302522 -3.792413417735138 0.0
70 1 1.5715571219526796 4.475098017375975 0.0 -18.865214414349893 14.663950770378385 0.0
71 1 7.710943878057047 9.36536852373348 0.0 -4.493250728096094 5.928677080739816 0.0
72 1 15.72170104925184 18.96080754580589 0.0 5.44516638287136 14.774614929560455 0.0
73 1 14.891922686534974 10.423576995483709 0.0 7.103134704999775 6.296032699106155 0.0
74 1 15.344499069911071 11.551336832721775 0.0 2.2956030334083177 10.32875628006262 0.0
75 2 14.43866815060435 13.355287978797074 0.0 -2.080316593893868 -7.62101217736241 0.0
76 1 1.738732543547288 2.3452522676577754 0.0 6.435033373857413 -7.995876879537827 0.0
77 1 18.275652452288348 8.041944024725668 0.0 -4.733107053081733 8.853784860481667 0.0
78 2 11.908065926705957 12.690888191262058 0.0 -17.31277745957179 -1.9694419566077144 0.0
79 1 17.24989975032865 17.864992334159172 0.0 3.6457461037043375 -6.569050092551561 0.0
80 2 16.565030006063434 2.958276218208916 0.0 5.723310012054275 4.280596522785627 0.0
81 1 6.172879366329655 1.1387095291887381 0.0 -1.4470266084377348 -6.734470021226574 0.0
82 2 10.355460704831444 5.03396736134759 0.0 -0.3868555042669329 -7.309711163379585 0.0
83 1 12.622266143625717 17.28311028054557 0.0 6.067625000159894 5.54651674028829 0.0
84 2 19.082223913948496 8.828684633127358 0.0 -4.710854126758754 13.768899739578067 0.0
85 1 11.496897330413807 11.640305054924742 0.0 5.669468343070546 -2.225697832754596 0.0
86 1 13.624786185489741 5.540256023953168 0.0 7.3865216597851475 -12.514964551229264 0.0
87 1 12.206389263645216 18.197327337207195 0.0 10.99000168206242 4.782511817895503 0.0
88 2 11.517777791475336 16.692475302095104 0.0 -13.767085514025522 -6.67190924284704 0.0
89 1 4.62683852316064 13.483931483712892 0.0 -9.364052964650925 -5.521980916502106 0.0
90 2 17.415545062574697 4.548908575052103 0.0 0.6627865617889698 -8.101890585659863 0.0
91 2 7.284383657704361 5.776417862855611 0.0 6.523947340349799 0.6416992075943022 0.0
92 1 12.113530547340268 0.91885186108626 0.0 -7.570845740714963 5.741899981813349 0.0
93 1 14.37024667038554 19.084313402874038 0.0 3.209231575087007 14.926792603304355 0.0
94 1 13.016610538853 0.25447054422481974 0.0 6.897388088816169 7.8878363406804475 0.0
95 2 7.524305590113884 6.963912786141264 0.0 11.507705524840878 -1.5021919710946965 0.0
96 2 6.325139027570525 8.23200866729104 0.0 1.5834290918059062 5.648219781783932 0.0
97 1 6.625464220251899 13.14420272197631 0.0 -7.894660557416132 -15.596495761334442 0.0
98 2 9.45853515037315 4.645641453540976 0.0 0.46044282827213767 9.974316242564855 0.0
99 1 1.9094233056013572 3.5432938057364485 0.0 4.856265461612476 0.853844384371137 0.0
100 1 17.28136118000885 9.003738661735706 0.0 -11.822090600922046 4.093400115399193 0.0
101 1 12.786807290452275 12.178558937155003 0.0 15.997220935441693 5.660360193872769 0.0
102 1 6.703570940908876 1.7748554087241413 0.0 -7.747957953337599 5.199616601170108 0.0
103 1 4.871733953488888 15.976074718328052 0.0 15.778597753971775 19.132991847802877 0.0
104 2 19.641935186384735 7.022509724956389 0.0 4.72668944713654 -8.35715487099569 0.0
105 1 17.495931328614375 0.17798334474545027 0.0 -6.9854199932452525 2.544189707177249 0.0
106 1 14.834296025202098 7.800876748894675 0.0 1.781850966006868 8.479772749044429 0.0
107 1 10.876407346525072 10.306739754773071 0.0 -4.339944889838191 3.9136771989273536 0.0
108 2 12.32484129964777 10.589411274468203 0.0 1.9803508108797059 1.4341380289161545 0.0
109 1 10.937617848670614 19.468064470392708 0.0 -5.497382462478658 28.137264112419988 0.0
110 2 8.609589655354835 12.308814865338457 0.0 4.955527638147193 13.45872054526672 0.0
111 1 15.796302185244176 7.833673928396656 0.0 2.1045468359431285 -0.059562839713895914 0.0
112 1 1.8176085092206478 10.281867367863391 0.0 7.529202889029736 9.951297713595055 0.0
113 1 2.7879950486510015 4.565134678327762 0.0 -7.120419879164399 -3.091846470478171 0.0
114 1 3.9201021683987025 2.7388336664309803 0.0 3.6436271055621137 -0.7054043058097681 0.0
115 1 5.041676510740637 14.565700953880281 0.0 6.232103820523622 -10.493489482187 0.0
116 2 11.069069830752712 14.358525910803754 0.0 1.718836894446509 3.1055334974437754 0.0
117 2 17.0983097622481 13.324107411656257 0.0 0.49331063312005247 -7.958278260331654 0.0
118 1 11.317505267076433 7.007188840942413 0.0 -11.275460161206277 -8.655107218504423 0.0
119 1 7.183667488469321 13.13776002297404 0.0 5.889378746369224 -6.794063054757452 0.0
120 2 3.9367617437421276 19.376312482569748 0.0 6.089604212537729 7.0067865030134175 0.0
121 2 3.445477947404045 5.066917713041343 0.0 2.7612239769340046 0.5002465486774458 0.0
122 1 8.138630091536873 16.64897390496481 0.0 2.936895907631627 -11.692607053097234 0.0
123 2 8.171887938222268 0.9756403601693745 0.0 -0.11138303027949209 10.65006955214752 0.0
124 2 16.82096713480696 11.669872695925601 0.0 -3.5475181814502776 7.131339132502606 0.0
125 2 4.861869333585173 12.438321151325782 0.0 -2.7111851063620915 -1.7388395574163722 0.0
126 2 18.360708983649445 9.263033069553257 0.0 0.9779412508421781 6.282361688555664 0.0
127 2 6.248007614769746 14.636287544633927 0.0 -1.9207719003350714 -3.1831801791221515 0.0
128 2 16.709962747590463 16.064653317268725 0.0 6.367655046971705 -0.3403868642758149 0.0
129 2 16.46637986081336 14.21241929440968 0.0 -11.768134255917865 -2.8001071183557804 0.0
130 1 2.3707735959293004 18.96996930627331 0.0 8.571726324510776 -5.1987716226787795 0.0
131 1 14.152467875115862 11.426892720143735 0.0 2.596646624595157 -1.2629807631418468 0.0
132 1 10.685564824972076 11.17347770072084 0.0 -0.018913074169532307 24.98871158440022 0.0
133 2 16.993068775437706 0.8603004256217951 0.0 2.7788295666835943 -2.1175811343186077 0.0
134 2 6.592834597203424 19.181115473695847 0.0 -0.5720343783666664 4.401857978320993 0.0
135 2 0.12374448693622613 14.007940731289585 0.0 2.3672372847265657 11.934905026020779 0.0
136 1 16.23552241462598 12.375607025291119 0.0 -5.337130114920193 -2.3692068615047894 0.0
137 2 7.175576712050252 10.914936126120004 0.0 -0.39481728141017564 -3.479010115927142 0.0
138 1 14.539440589266793 2.964565599065806 0.0 -13.336380111592188 4.939264816856199 0.0
139 1 11.609360521756013 6.249732264627866 0.0 -10.874098770510898 -1.8781327615012873 0.0
140 2 4.918408611185303 9.64235769085411 0.0 2.9805376204594918 2.5309808438932984 0.0
141 2 2.2140215592145314 16.225093377620464 0.0 7.2981993671556635 -0.2083870091145945 0.0
142 2 4.239937022479478 1.4314423074049718 0.0 -1.9379290563483254 7.639893553259148 0.0
143 1 19.10631471064898 0.45583478407065625 0.0 -8.463000384721093 6.036681091100805 0.0
144 1 19.027613548613605 13.894273765850661 0.0 4.123097568047759 -7.532278912515767 0.0
145 1 5.811384539241447 2.125742685163533 0.0 -3.9491796929835705 -3.7131265805226947 0.0
146 2 10.50431794766853 6.171570283777231 0.0 -1.3576106628450912 5.78528232978071 0.0
147 2 9.690846098464549 11.41855282282428 0.0 -1.613997821894271 -1.7081253166925345 0.0
148 2 12.70929617821612 1.8203306556227044 0.0 7.589343516624175 -1.961607497812227 0.0
149 2 5.257663121003919 0.3699371665469552 0.0 9.121654919693801 5.398200406661015 0.0
150 2 5.914400170424321 13.837495473586909 0.0 -2.525469651573008 -8.536176668022472 0.0
151 2 0.19386351658382167 7.9914489988043345 0.0 -12.229586176605443 -2.5595042588490795 0.0
152 1 12.078784751553604 14.669297228603757 0.0 1.136436298790959 0.7774702901595798 0.0
153 2 0.4179728514042678 15.110623875813477 0.0 5.480721537963079 -1.4881512784626914 0.0
154 2 8.703838049238001 5.241882642856528 0.0 -2.3454178705367097 -4.889403229664855 0.0
155 1 2.0893603517160675 9.7064220706673 0.0 -2.7609941670672815 -12.730939321606874 0.0
156 1 6.399885387027044 3.096006968494814 0.0 -3.5113880082964206 -1.8836839115932769 0.0
157 2 13.506341615096776 15.22376864488538 0.0 2.3541257433748557 -5.221832164743416 0.0
158 2 5.024809247589701 8.770657728367476 0.0 0.851216164786266 -4.688349659976883 0.0
159 1 16.044818028790512 7.37011697982215 0.0 9.14122648212115 1.9710139336290944 0.0
160 1 14.224372009180227 9.21442952987655 0.0 -4.664012410284739 4.127185764161413 0.0
161 2 15.035790909575672 14.06204488189264 0.0 3.3394645390444624 -4.496992882232777 0.0
162 1 16.631195790501803 9.966673902227127 0.0 5.932514498482442 -12.548664638822864 0.0
163 2 2.9033793702766966 7.595022391901968 0.0 -4.161684636094936 -4.342076161131241 0.0
164 1 2.046117816683036 13.930174248763297 0.0 3.2676819831124466 -15.168751565145522 0.0
165 2 1.5571933135465639 8.446114752532496 0.0 -0.4459290756724185 -0.7433435300295427 0.0
166 1 8.198702463512523 9.527059390595472 0.0 3.742546422876298 -14.506923252552514 0.0
167 2 10.33070259419625 4.049509852783733 0.0 -8.4700412374264 -0.19192040746223923 0.0
168 1 0.2469906793973216 1.9255399707368372 0.0 1.8899150929313129 -0.637906019260096 0.0
169 1 12.909361513546726 8.378486408101741 0.0 7.508478251027158 -1.9308620810311627 0.0
170 1 4.171470113172718 16.639695799081778 0.0 -11.79486490770894 -12.58650213659612 0.0
171 1 2.014896074170407 1.4135294637227427 0.0 14.848291223681436 -1.8653549656510116 0.0
172 1 14.750467382576847 9.749219540717949 0.0 2.3011796624444343 -7.5081684606822465 0.0
173 2 5.2101070363815865 16.660327088798166 0.0 6.614307416463632 -1.7207096685879242 0.0
174 1 0.6555101890882243 1.6495721542805108 0.0 6.409726212727282 -1.9320183078959126 0.0
175 2 13.404160886893603 2.498256267211796 0.0 7.047066121330163 0.9420168715113434 0.0
176 2 9.525227098236327 7.816081704067627 0.0 -12.260748727734319 10.417040925459606 0.0
177 1 3.67819118371783 15.408676229979294 0.0 9.077197914238175 14.331086831333316 0.0
178 1 3.954619314810564 15.937923381294137 0.0 -1.3970071834051037 1.8584814463816708 0.0
179 2 10.969206043265519 0.6004876176018616 0.0 -8.879222277523235 -2.234364024089446 0.0
180 2 13.351057079488264 6.270424133375687 0.0 3.8401324965837067 6.73699356685781 0.0
181 1 2.089834833114785 18.55865242052477 0.0 -3.2176242955704066 -0.3405622506678841 0.0
182 2 14.588926233051142 17.004233347228276 0.0 -1.774699210207094 -2.95000744042643 0.0
183 1 17.256694946605737 10.342954484608233 0.0 10.038104145679148 2.668182957080208 0.0
184 1 3.355560796367762 10.979363208756158 0.0 2.4434692138870964 6.677021371130344 0.0
185 1 3.90867001604795 17.2799033728232 0.0 7.654634987649469 0.3224556633585403 0.0
186 1 14.404801132156951 15.669464242937691 0.0 12.48796087539381 -6.551279822588893 0.0
187 1 5.071957647629049 15.289155058723056 0.0 -1.9943796023333507 9.870018078282792 0.0
188 1 19.584254298593127 17.226888354435506 0.0 2.4370058322426336 5.670317250381944 0.0
189 2 10.324746218228247 7.365283877546542 0.0 6.969415716765854 2.6067955644707252 0.0
190 1 12.36541195146396 5.402650391412001 0.0 -11.928103998170798 -9.875255282896296 0.0
191 2 15.168011990674838 12.279631872256173 0.0 -1.0680373409813606 10.472632666142017 0.0
192 2 0.7804379834554145 4.999196806702564 0.0 -4.292868087623805 4.810535369806864 0.0
193 1 2.7479905949281447 2.103535645503291 0.0 1.0548987332084914 -1.543655081094621 0.0
194 1 9.377119103989173 17.63672542501853 0.0 -9.274185541874916 4.176079471609256 0.0
195 2 1.5543804296820043 5.415874241961923 0.0 4.748131355948026 4.043308971621362 0.0
196 1 7.619000438001287 12.642573935958007 0.0 12.312097195327727 -13.915627055039481 0.0
197 1 1.3705857644663493 1.7729940457370108 0.0 -2.6606463943962795 -1.0789002315788379 0.0
198 2 16.1153594748078 4.164761204308032 0.0 13.503820717375213 -7.227494853209106 0.0
199 2 1.9267778822150445 0.5381851949815097 0.0 2.5621498801843985 1.853426093118259 0.0
200 1 13.489211658889188 11.803910133959564 0.0 -12.144029021357483 8.106937747029363 0.0
201 2 13.454701002134447 14.229895599327653 0.0 5.844666282642319 3.2612955031266497 0.0
202 2 4.57311824792016 18.55061305334741 0.0 5.061636632273615 3.131027903231655 0.0
203 2 5.195996155413669 19.177362344590804 0.0 -9.049247996890212 -3.588890734815616 0.0
204 1 1.0314393583356816 3.4845780230884116 0.0 3.547239436433889 2.4184950024378997 0.0
205 2 8.996336867103244 3.5877023006421656 0.0 -3.0317832599567764 -0.05908649040774918 0.0
206 1 6.074533617038216 9.741237725812182 0.0 8.669510600533831 7.675776921110082 0.0
207 1 6.572354435083159 9.48012196614001 0.0 8.717683817751539 4.9956898593327805 0.0
208 2 3.9772906380146975 10.002539541506524 0.0 -1.268751441947551 9.814541657373889 0.0
209 1 7.1050728485369845 18.50449032698418 0.0 -12.316747682356898 2.7105320467552754 0.0
210 1 2.927262921658653 0.8699635248245967 0.0 -7.896582162638173 5.095869031680623 0.0
211 1 15.549370556793694 3.0414752195669563 0.0 2.9862028788807193 4.223197090824691 0.0
212 1 14.59163273465065 5.173778660621784 0.0 10.258953887350954 18.75602298139929 0.0
213 2 3.0473037571926125 9.309430778683893 0.0 4.632576501184891 -0.06129957393629668 0.0
214 1 11.748199639731473 19.694268102651744 0.0 -2.557757563536115 3.459299800719423 0.0
215 1 9.542962909223592 12.227781104139739 0.0 4.836697473211138 11.592193594095704 0.0
216 1 5.0917683280361 3.0718312066799753 0.0 1.8393264207851705 -3.8754225454907645 0.0
217 1 4.563266653378171 14.237773992447337 0.0 -4.623858825240784 8.459257198622527 0.0
218 1 17.892130965829733 8.324645010915244 0.0 -12.504140101433348 7.566769379041936 0.0
219 1 0.3859530579291472 8.882988584735468 0.0 9.407098571562384 -10.320108086077346 0.0
220 1 14.785735306493113 15.176720085791224 0.0 -15.002969435307461 15.157057126017845 0.0
221 2 15.618513582434732 0.03107844013612221 0.0 1.010501212810236 4.425694007635852 0.0
222 2 6.328726417447386 18.266233945961154 0.0 4.5934588663716225 -6.171773791130315 0.0
223 1 10.538199631258136 9.733349840382784 0.0 0.6221860403709537 -5.718771737662545 0.0
224 1 6.4342775926527835 6.344247416255644 0.0 -10.489533329202787 6.927639880376456 0.0
225 1 6.961873579394476 0.8630913856880835 0.0 -2.4877131727772586 -11.9839593426724 0.0
226 1 11.260521689710398 8.170880384076504 0.0 -11.49821925281586 0.15538781878893904 0.0
227 1 12.449202789839717 14.314193348817566 0.0 11.685828129016835 11.75767063584733 0.0
228 1 10.915480922243459 2.622647234963309 0.0 -0.7250753555001713 10.84987332784634 0.0
229 2 10.048438811877716 14.631417923937363 0.0 -10.074437102793201 -11.17816035506061 0.0
230 1 16.54960571379292 0.04351239225690936 0.0 8.3253169347079 -8.946473531455425 0.0
231 1 13.383398455749768 8.308480529238462 0.0 5.595358254758275 18.86409724609542 0.0
232 2 18.14304783455847 4.999478502485155 0.0 -9.626570282006574 2.3673060879238506 0.0
233 2 14.96610909843433 8.740375219043441 0.0 4.976207070092022 -7.0680798916137 0.0
234 1 13.229935264797236 0.8919519738252277 0.0 2.397721294010595 -7.739832590325564 0.0
235 1 14.761772157525364 3.9594241884145385 0.0 10.853608739407845 -4.932541073723207 0.0
236 1 0.3271297196404786 17.129874068813045 0.0 -3.140468945559582 -13.608100165473646 0.0
237 2 10.959503206870332 12.455071761326794 0.0 -3.6691053600386163 -10.255083972954374 0.0
238 2 11.469266213113615 18.71728597592695 0.0 -5.686263536990343 -1.6830911542778006 0.0
239 1 6.272138939415446 10.407354506994889 0.0 -0.41659698182160027 0.7355608741963793 0.0
240 1 9.02797510993732 10.219409455762625 0.0 -0.433568622299157 8.560155724173338 0.0
241 1 17.25978094124563 15.028816718722522 0.0 -5.3908544295618634 5.765516473269801 0.0
242 2 13.778843838653795 4.6852817364699595 0.0 -11.228150713655893 0.9753656057531429 0.0
243 1 2.599919266059282 5.4208761811182375 0.0 -1.960927411088258 -17.168503385509066 0.0
244 2 18.369707286976354 5.970499059195033 0.0 -10.0671408181583 3.354771785825737 0.0
245 2 13.39848635899776 12.711868035203754 0.0 8.818655551484943 4.001749616356561 0.0
246 2 15.626018073548241 9.481507852269413 0.0 -10.172394008158516 -13.275656909799654 0.0
247 1 8.44870110273879 4.274234673373062 0.0 -5.549654015984504 5.937562726965669 0.0
248 2 2.9047766811696505 14.075016318917308 0.0 -12.908548294529078 0.7652206096349911 0.0
249 2 3.8482790744335538 0.5215576499340271 0.0 -7.132283719152706 0.2984133192576843 0.0
250 2 16.723010147445642 6.6654713720770555 0.0 -2.7744545865294454 -7.612828956057272 0.0
251 1 17.857725519449787 18.283888348250283 0.0 1.8881748318578764 -4.9634552108524685 0.0
252 2 19.646517581078136 3.709285792593996 0.0 5.560458432983935 3.022805618986674 0.0
253 1 12.134386195556447 11.99135970475318 0.0 2.9559423147308705 23.35217262612938 0.0
254 1 15.026566978993134 5.549801739042931 0.0 -11.304255693235024 10.038046598229187 0.0
255 1 14.980933909260374 19.3756030927478 0.0 -3.1977626823887646 3.6274088958838844 0.0
256 2 8.182363284884323 7.784007812418533 0.0 1.6210591173998423 -7.8116881103466 0.0
257 1 6.049198850943554 0.04162030033372659 0.0 -2.1464157580819396 -4.654168152234429 0.0
258 2 14.090169326600847 10.236229775135358 0.0 10.897471385825655 -5.343548168470039 0.0
259 2 8.811928120871407 0.39499125738054003 0.0 2.6699715605999557 8.670260621289257 0.0
260 2 19.498744534731397 19.40010438336662 0.0 3.2240622018911527 -0.31386492604613725 0.0
261 2 11.892101681602288 2.4720610943553916 0.0 -5.369857290769752 -4.144768019785213 0.0
262 1 10.329722663030774 13.78584929918653 0.0 3.9949170113583 -7.625474081283609 0.0
263 2 3.689733042655182 11.853196464405581 0.0 -7.33568499727596 1.0787882517481504 0.0
264 2 4.385547389339662 4.875152841915045 0.0 9.441946396853988 6.5596206236566745 0.0
265 1 8.067787581262296 13.36284557129015 0.0 1.510397593248985 -17.336022799616323 0.0
266 2 1.2251687089580676 14.600098623849183 0.0 7.8955923177514515 -2.4582499168562575 0.0
267 2 10.386972779647873 18.841703200451533 0.0 3.1681091248845377 -7.356977807392462 0.0
268 1 13.864393462553164 16.23117492653459 0.0 9.142538840686882 -4.6851798407413465 0.0
269 2 3.549109898041919 3.8717398285067612 0.0 3.030361679209145 0.29333532903089643 0.0
270 2 16.341016267801507 18.21043524921566 0.0 7.452778566361706 -0.9876845059237606 0.0
271 2 0.31366553375129785 12.92285636467809 0.0 2.5405287851321727 -3.655360321571481 0.0
272 1 8.180757909557094 14.445060135491238 0.0 -9.802805983827623 3.758018606770733 0.0
273 2 7.3620353505617295 4.335080492763434 0.0 -1.5113671231186872 5.133248875784694 0.0
274 2 11.425477408387552 1.666973243939972 0.0 2.6633068639608286 0.9516700358060186 0.0
275 1 17.601288638795214 11.445612045037882 0.0 -6.794044098560798 5.011389244429057 0.0
276 1 18.894188302189733 12.59329200776071 0.0 -1.0990318274330504 -16.331150992489803 0.0
277 1 6.529115715633341 1.3951169609215799 0.0 -5.833015423824537 5.072640617915813 0.0
278 2 17.63412841690792 16.008117566767318 0.0 4.917427961242006 -11.994706870282984 0.0
279 1 13.812482948208265 9.476124151633302 0.0 -11.252762173878086 -10.33301394683824 0.0
280 2 14.604970905170626 6.997723008131494 0.0 -1.419013506407733 2.128923195774458 0.0
281 2 9.555129886993162 5.629307642687393 0.0 8.021836477043156 7.941821375799028 0.0
282 1 15.272057836382277 2.59102765702012 0.0 3.858466299321043 1.2542608303927976 0.0
283 2 9.874912227400705 19.57318257332676 0.0 -6.915452155130915 11.139239051419048 0.0
284 2 0.5787287030900917 19.384709642386664 0.0 -3.363981007162769 0.3963710317481744 0.0
285 2 9.021619782048155 13.34044252527111 0.0 -2.709061011647797 -4.955292203923707 0.0
286 2 13.317735628810553 19.20657059289297 0.0 -9.602938718275691 -7.76712641210849 0.0
287 1 15.298424815984543 3.747564462661252 0.0 -5.494650890561082 -12.233097863791594 0.0
288 1 13.289805387502032 17.138591530877626 0.0 10.123255650422564 -1.7708085586928468 0.0
289 1 3.757072585074546 7.109017442454993 0.0 -1.68289215140622 -4.20332961245636 0.0
290 1 2.304634349242747 4.930398635360062 0.0 8.489239439488696 -0.14065680421921944 0.0
291 1 16.835137244379823 12.566076153548588 0.0 -17.725615034205102 1.9313292460960596 0.0
292 2 13.281067560219755 10.22910720765556 0.0 5.964326725792768 3.964238604755295 0.0
293 1 5.741038515491949 3.063768488396207 0.0 1.4172569496784275 -15.500229820947355 0.0
294 1 2.4676141567445926 3.6112282775948894 0.0 -6.860794869429415 -4.313383610470002 0.0
295 1 9.658801163957937 17.183661832487775 0.0 -5.89603365147657 -3.605033058297259 0.0
296 1 13.126456929767864 11.240478894164664 0.0 9.169099795557454 -9.274614758457428 0.0
297 1 12.65551779177173 18.423649564564528 0.0 -20.459665186257325 10.21610959687032 0.0
298 1 5.726149187596958 15.977284837724056 0.0 -6.697931970217855 3.046564471104623 0.0
299 2 7.98147400796732 18.715729677088692 0.0 2.976225870079953 7.792427224771814 0.0
300 2 11.280830117899306 17.52996881572595 0.0 -9.991661812688877 3.7098769967852636 0.0
301 2 1.7319433535058484 6.553122342021849 0.0 -2.676763543209467 -9.021326820740098 0.0
302 2 6.3105490061225655 4.244389581337185 0.0 6.039058408047733 1.473126078691211 0.0
303 2 8.786931809177286 1.7214369483959158 0.0 -4.73107402021593 -9.596444267165232 0.0
304 2 9.08128284190806 14.993723150822113 0.0 -4.657473224991059 -0.2732869409888725 0.0
305 2 1.76110763580813 12.304868201195488 0.0 -3.777735784012198 0.37195873985394373 0.0
306 2 17.133480588761017 16.99298271920609 0.0 0.22445760558342154 -1.9039134664808797 0.0
307 2 7.623603548496173 8.51424931732422 0.0 -0.12440685193170023 -4.175213931516644 0.0
308 1 17.482008334944776 6.031516365983609 0.0 14.41809202533599 13.743716843961826 0.0
309 2 18.726987798003556 15.728614970222694 0.0 2.6968392134560477 0.01167981522319556 0.0
310 1 4.350960683290348 17.448672941031532 0.0 4.664996093548676 12.243154190944768 0.0
311 2 14.415889482548728 0.1828689720537413 0.0 -7.620483011834478 0.8615037445021416 0.0
312 1 6.083086182307541 7.453492854602997 0.0 16.206858052057274 -2.354738881455455 0.0
313 1 13.525821014204807 18.100316976963462 0.0 1.8688892704622653 18.050165782565877 0.0
314 2 18.200404774725186 13.139397087163163 0.0 1.4340163328182507 -1.853892781791428 0.0
315 2 15.42154697640492 6.63420975286331 0.0 -3.0763593446301445 -11.677294567241054 0.0
316 1 7.603787192711189 16.21325849210016 0.0 2.65013717884721 -5.810541393242219 0.0
317 2 3.28856620008075 13.01231284500259 0.0 0.5096534324696257 -1.3035042753902 0.0
318 2 3.946451107231058 5.970724563672827 0.0 -3.824241473170834 13.195782772014825 0.0
319 1 12.342779057016736 18.78852742376783 0.0 -6.388734516467436 7.263088539121215 0.0
320 2 6.012967784764838 17.279091712570875 0.0 3.028836809172604 -7.308715499902554 0.0
321 1 19.543029290165084 17.906723160258053 0.0 12.5528080115362 -1.4215419559492062 0.0
322 1 11.23717057661387 11.064876772929928 0.0 -8.854451554849017 -0.7515028154586508 0.0
323 1 6.120916757334895 15.577442371891767 0.0 -6.545269249600358 -5.445822151039812 0.0
324 2 16.811239700603718 7.668619528333161 0.0 -1.7133189757464145 -0.31983658811046856 0.0
325 1 9.245860119899083 2.4365562239083087 0.0 6.961003750737196 -5.394293044214988 0.0
326 1 2.1731166678634413 8.958190615336735 0.0 1.6227460986344577 -2.312986213330635 0.0
327 2 2.8431348335578606 17.228640375727213 0.0 5.045941779448568 -8.774875927756144 0.0
328 1 7.133811072016485 9.355051232059031 0.0 -3.8817601059691818 -3.9797341480309276 0.0
329 1 10.307004784187065 17.869842711725262 0.0 -0.7467413309442851 0.6124291802557144 0.0
330 2 2.4508525360832327 2.8472845866882683 0.0 7.979003231558322 -7.70528246083849 0.0
331 2 11.948022673871616 4.41509441931695 0.0 3.893832243354894 7.225041156889519 0.0
332 2 0.49194003526419233 18.051117265717423 0.0 -6.4815118894763035 3.209977378974805 0.0
333 1 3.9826029131394076 13.593631913219333 0.0 -0.40280814104008245 7.781268574126728 0.0
334 1 19.732219036059416 4.872265447892419 0.0 -7.620267088523788 15.573980527707011 0.0
335 1 8.69721455492977 17.137207118357797 0.0 9.212106830007798 -4.1981885007378485 0.0
336 1 13.642248657023963 8.880594495263296 0.0 3.441935662099451 6.992699913635849 0.0