ITEM: TIMESTEP
0
ITEM: NUMBER OF ATOMS
400
ITEM: BOX BOUNDS xy xz yz pp pp pp
0.0 19.7609 0.0
0.0 19.7609 0.0
0.0 10.0 0.0
ITEM: ATOMS id type x y z vx vy vz
1 1 12.798392970643706 2.0255103700072756 0.0 7.017365969867993 -15.367467449133628 0.0
2 2 13.386674329886384 6.960479229922116 0.0 3.3353327277399294 -1.8361066705099682 0.0
3 1 12.859365620930063 10.63374005953596 0.0 -4.010934333333217 -2.090975285514014 0.0
4 1 11.657750582050287 15.12144301529863 0.0 -9.507591168816756 -5.657788814881167 0.0
5 1 13.592806949625906 3.98334788352446 0.0 16.04395239075514 4.274935640126565 0.0
6 2 15.224200894249492 16.74758635040134 0.0 9.895700140428948 5.880452727770787 0.0
7 2 6.547701974517224 18.244295906800204 0.0 2.5176493413313104 -2.688622530492013 0.0
8 1 3.5795356870215844 10.623323830175154 0.0 -5.486130508058768 10.41514728397429 0.0
9 2 16.14165106505909 3.124314620582755 0.0 -5.018526768099912 4.870005039911033 0.0
10 1 11.833608845685008 12.15013529693621 0.0 2.9991296390043884 2.3542320065917837 0.0
11 2 14.030999264713797 14.743183741044493 0.0 3.3612508193215587 -1.8808451985211092 0.0
12 1 13.669946356341903 16.93060439662218 0.0 -0.9498630866352872 4.483794443182941 0.0
13 2 19.52146510999236 13.505757935753598 0.0 4.631796843847623 2.9643609063726255 0.0
14 2 16.37574004886249 18.717563334068018 0.0 1.8267258295517377 3.110790795473366 0.0
15 2 8.646642389887141 1.6145122924701387 0.0 -8.119904449918364 3.629192637131473 0.0
16 1 10.12234106660615 14.389143500640046 0.0 -7.145487780160277 -10.521709774718326 0.0
17 1 16.90453021676782 13.423644863257339 0.0 0.5950900281478309 8.712060802610047 0.0
18 2 6.931983997772884 2.8298052648692655 0.0 -10.785010316691649 -0.48591053086376307 0.0
19 1 4.456680862945385 5.656554558605252 0.0 -8.449700990012524 10.060590136959979 0.0
20 1 17.50868604486367 1.3352172163089995 0.0 -4.776558515495305 -5.486091399791005 0.0
21 1 1.3743595855754296 1.3760896331836467 0.0 4.24786105643125 3.4424213157330303 0.0
22 2 13.134297900194005 8.04619243401623 0.0 1.6683655815227356 4.434885502981563 0.0
23 1 19.64987030084205 16.124317032215806 0.0 -1.6937203554375808 -14.659692500465578 0.0
24 1 11.004819081508028 4.350747331926213 0.0 11.012301645894258 -3.746451063277514 0.0
25 1 0.5727384047371336 16.34128633065229 0.0 -7.049781446944406 6.928530205278088 0.0
26 1 19.31741738149171 1.801945824711822 0.0 -8.203466820747918 -11.942633256302866 0.0
27 1 9.868165222211418 17.277145373601073 0.0 -7.620542762924173 -8.341836303462722 0.0
28 1 5.623372247922525 5.773510849121241 0.0 0.5314376710411296 3.5786068624156906 0.0
29 2 14.444253386398247 11.681073497774115 0.0 -3.8021669478755333 10.61869097238652 0.0
30 1 5.690412499384068 0.4831272137363963 0.0 0.8119887955667919 16.98657848747376 0.0
31 1 9.729452340473838 6.066744855392575 0.0 12.633155219416695 -4.386184668868898 0.0
32 2 7.447470675172985 12.732492982686876 0.0 -11.17504580375441 10.934342991262982 0.0
33 1 12.68348973153171 4.104892819423691 0.0 -9.182761943051133 3.3134414197400144 0.0
34 1 12.031131931088744 11.039389683302774 0.0 -8.220357574966494 -7.178060902429903 0.0
35 1 3.9884857287046045 6.277630306166828 0.0 3.0092530302171117 -10.866621373517924 0.0
36 2 1.0507316547989185 5.995743151771765 0.0 -1.0536417928948907 -11.319582321039698 0.0
37 1 8.358750679052244 0.6587130076460279 0.0 -8.865012232300417 -6.7028468088098565 0.0
38 2 10.437271141777776 2.4967576650880052 0.0 -0.37336072217046595 -3.040808954406353 0.0
39 2 11.620566309282422 5.230092484774241 0.0 1.0244879163865233 4.050587957966087 0.0
40 1 8.286730013195394 17.255681407097903 0.0 7.090547551886247 13.532505518400976 0.0
41 2 10.692786799597904 11.066710430902504 0.0 1.0113875558161567 0.683882997932482 0.0
42 1 12.82741790444533 3.443903102728107 0.0 -3.1171203406049193 17.364281428734472 0.0
43 1 10.93563048022342 14.605661450355319 0.0 5.380831988324464 6.395775771592444 0.0
44 2 16.101941064844713 16.261906941279673 0.0 3.0597785550736694 7.340686045684651 0.0
45 1 10.069023535524943 9.495721525548799 0.0 -17.026171500656904 0.8765090297079039 0.0
46 1 13.780462627817643 2.342945167849415 0.0 -5.735529698231231 -12.590702101005283 0.0
47 2 11.726398340087583 16.37700295536814 0.0 2.533709979862264 4.6257924682211575 0.0
48 2 10.82592726416869 16.136758829827752 0.0 2.012617795052531 -3.8065921548634543 0.0
49 1 11.723801757840723 10.496518985297596 0.0 0.08270363501681664 -11.540182067801283 0.0
50 2 2.9067125284221023 1.3729040714475578 0.0 -3.6415925003704266 0.1708675001999012 0.0
51 1 12.717592875360234 0.7680129289345763 0.0 -9.71558556686031 5.718050925713741 0.0
52 2 1.4923965289836119 4.961898299396272 0.0 -13.297618814437179 2.4111819717627805 0.0
53 2 10.333344751601324 5.546105124809502 0.0 0.4234614160884292 -1.8400669407290358 0.0
54 1 2.1385209618951557 9.615625095464882 0.0 6.605720426067483 10.417118730403649 0.0
55 1 2.851442201246722 10.91005574417538 0.0 4.171418723088007 5.518593050681701 0.0
56 1 14.699757047409062 2.300753597093685 0.0 -8.827315769690802 2.795103602213394 0.0
57 1 5.4655706859866475 8.601068848890247 0.0 2.467175987590995 18.38323854806893 0.0
58 2 12.318426103197718 8.280844460887975 0.0 -10.864531507698597 -5.666395236193711 0.0
59 2 12.95043244124774 16.455276315898693 0.0 -4.85175897800739 5.304655900605307 0.0
60 1 4.632447293525618 6.550242662624558 0.0 1.4851282586519832 16.689275022212456 0.0
61 2 17.412390835204206 17.322069405100095 0.0 -6.288556631134899 -7.019116529465358 0.0
62 1 16.260865484193868 1.2401736928864924 0.0 9.809080039314189 7.973182723034414 0.0
63 1 9.645884950305879 10.065146533038977 0.0 3.619771126362975 -5.657305867865133 0.0
64 2 2.482951088563462 16.209500109331426 0.0 -7.137106524318665 -8.198368561262402 0.0
65 1 18.07146391067377 14.421997705897171 0.0 2.4949009438660905 1.6174773075283106 0.0
66 2 0.49066513329233336 9.774723898719923 0.0 -1.9242502177307463 -1.062610061874436 0.0
67 1 19.53702269658962 6.526568303451129 0.0 13.566044208791945 -14.805353577229656 0.0
68 2 8.607195593130847 9.120787631166566 0.0 11.081462592862032 -1.334229959508428 0.0
69 2 4.486140066410942 14.709721892675192 0.0 -7.514789427241661 -2.9331877172829732 0.0
70 1 11.716002530154972 15.62177304690562 0.0 4.534849583127765 10.246945359565423 0.0
71 1 17.861126145582986 0.5018492733228921 0.0 -3.0100906083164403 9.065750391144544 0.0
72 1 0.16453070720127028 1.7209503648370164 0.0 7.969979930308898 -4.028576620783992 0.0
73 1 3.7905104739531392 11.033964719198433 0.0 3.761122073050073 6.832255716520976 0.0
74 1 16.86812099380753 1.2177540912059739 0.0 7.289512019904103 -0.6890881396612111 0.0
75 2 13.86413867995036 13.610222645153645 0.0 1.1424784119230555 7.132282745350816 0.0
76 1 16.32472065932504 8.530225061106897 0.0 15.08775276763508 -0.17693536285574304 0.0
77 1 18.737067927214383 2.160988470200038 0.0 6.390154014466699 3.5272732898592927 0.0
78 2 4.082285221444076 0.883239840245545 0.0 3.523666196538223 -6.189833576772827 0.0
79 1 12.564710394639752 4.927390912925592 0.0 -9.684301114003233 -0.06439044110981358 0.0
80 2 15.388524072067808 1.1748194735240023 0.0 -4.272951736035317 4.241387189839885 0.0
81 1 8.586016235111464 7.489891219399036 0.0 12.470673832741493 -3.5156102480510287 0.0
82 2 4.943195953051976 16.768349175648854 0.0 -0.5554156803147413 0.324127589169456 0.0
83 1 11.098217633327192 7.644544293385086 0.0 14.298035958666933 3.103886981842424 0.0
84 2 2.6214757406980222 3.277038639259401 0.0 7.902558552429069 13.84813821270006 0.0
85 1 8.050691580866793 2.9471336075686545 0.0 -9.168879359644334 -2.4902910153375704 0.0
86 1 3.7346533305019443 5.665885241506766 0.0 7.610293134824907 -19.87488170104316 0.0
87 1 7.246780531443201 3.8388363634711324 0.0 -14.20935815657847 4.788344829163483 0.0
88 2 14.352841957414608 19.604091469002377 0.0 -2.5678936336950136 -1.3555635733232592 0.0
89 1 0.08960072105924673 12.143900830725707 0.0 2.463355164311246 7.285457932287465 0.0
90 2 2.6636965422393866 4.530431402321955 0.0 -1.906051832293444 -2.483107956924561 0.0
91 2 15.091485529438556 13.422035414103835 0.0 4.993364573611861 -1.6038237649920273 0.0
92 1 11.696232751726164 9.27783811271665 0.0 -10.649172783513732 -10.230859864174214 0.0
93 1 17.327074655747907 14.272319270232831 0.0 2.6209662956120345 5.25632978532792 0.0
94 1 14.320658531905183 3.8573250303230124 0.0 -5.204483645121248 -5.99796050920413 0.0
95 2 3.0785271889923087 9.943867053908344 0.0 -12.295774552789554 -2.8093168115580407 0.0
96 2 4.265677884991276 17.979276308825828 0.0 12.460858394829259 10.635941715300484 0.0
97 1 0.2993251746307676 7.158549962885644 0.0 -3.610920008581965 -15.044236024776593 0.0
98 2 19.41000565048589 18.34451316834392 0.0 6.954359708213249 7.054842897655287 0.0
99 1 18.63949216299567 17.257661093309547 0.0 0.27033800076544673 0.6931954186630976 0.0
100 1 14.272322855099375 6.460000423528816 0.0 13.70185132835395 -14.566046811347508 0.0
101 1 17.97895794295206 15.306063655407693 0.0 -15.162844974684958 11.344295419697346 0.0
102 1 14.028342590726238 3.4182092656377554 0.0 -9.836071928857704 2.049494595790572 0.0
103 1 0.3475526277822442 8.995260654589298 0.0 -2.193060991503785 -7.044530413349475 0.0
104 2 5.9055065384335785 10.216217083414518 0.0 -6.467064837596446 -2.59207992496777 0.0
105 1 6.297675274685685 8.545799528856598 0.0 14.105371881319416 1.1959659575663573 0.0
106 1 17.59810759429701 5.253700538666211 0.0 -2.96560851362258 3.0787997821676307 0.0
107 1 18.806965228992972 3.5587392070817936 0.0 -2.487974723558727 1.8066896979630964 0.0
108 2 7.332766496979506 14.768095726101432 0.0 0.19130913450958592 0.7127670148444476 0.0
109 1 18.79419244873097 10.703798464735737 0.0 4.927773270322438 -1.1260932164120712 0.0
110 2 5.791428286804137 4.360190701054541 0.0 3.1028173986528502 -1.1783353731133215 0.0
111 1 0.4018699829638265 4.11437978268377 0.0 -0.7115270890621577 3.9545877777786282 0.0
112 1 19.48949851020839 0.044793263573323985 0.0 -13.002065399069838 -7.8262182140821315 0.0
113 1 13.283608707207291 0.31482607441089067 0.0 -14.396917061272214 6.457597979302846 0.0
114 1 13.830522058067857 0.9182855065766441 0.0 8.344402934666558 2.8917641952245012 0.0
115 1 5.981432321086995 6.499588122780112 0.0 -8.885306239605157 -5.940836229057025 0.0
116 2 9.752838587030325 1.6004972675864122 0.0 -0.751520341407406 5.144332427329805 0.0
117 2 9.18628251724484 5.371570320156831 0.0 -4.4362404609459 -1.5136644768019114 0.0
118 1 2.9318573586245376 12.05170950849054 0.0 -5.25735649625807 5.386726681444224 0.0
119 1 19.25717343983617 2.6509398795308314 0.0 -5.526541033506225 9.610984023722114 0.0
120 2 6.099280315174587 12.214511660437928 0.0 -7.113799488649594 -4.784059765957373 0.0
121 2 17.219802057419784 11.326383398098782 0.0 -0.07491499482506313 -2.348162414560055 0.0
122 1 3.1299223215624785 17.319138729899613 0.0 -4.565411201238776 -4.070790084643243 0.0
123 2 11.801796903269397 2.1253347142636323 0.0 2.9135482619338338 -9.486731245902691 0.0
124 2 15.820976221998835 2.2566541473476533 0.0 -11.487902451548406 -5.793923165361923 0.0
125 2 2.0286461432370486 1.8286628725827627 0.0 3.937869313738287 4.27144682359157 0.0
126 2 4.780766988777156 13.766188706964643 0.0 -13.283638210078202 -5.785553368603082 0.0
127 2 5.355599385178993 17.69007106877807 0.0 -2.26782129455918 -3.676271302768956 0.0
128 2 19.213260545676224 7.879226722462877 0.0 10.438812098986016 -8.77941159175767 0.0
129 2 17.485910687234153 16.035718273257675 0.0 -8.6203140269021 -7.446333843635831 0.0
130 1 6.558626848746423 19.53128901969687 0.0 -6.154932090952501 -5.744302651918794 0.0
131 1 14.361975465328994 16.715903616996776 0.0 10.283431806119662 -11.486690279744527 0.0
132 1 18.76405966882169 16.666312773524115 0.0 7.756616735802331 -2.39663948122056 0.0
133 2 13.983241868249209 7.726156439597978 0.0 -1.165385650712459 2.3955636410264907 0.0
134 2 2.1824903279940204 10.337822575715213 0.0 -3.522775071202151 8.003707475692607 0.0
135 2 14.036135989457135 12.665072290322552 0.0 6.445746988089701 3.762674333803074 0.0
136 1 9.744437204359164 10.753968961830768 0.0 -2.3275638973863266 -13.962188149998271 0.0
137 2 9.064761650022811 2.8665478114346485 0.0 -4.7836392920483455 -1.560673275301237 0.0
138 1 9.105917109957401 0.4259497269944598 0.0 10.278023980909774 9.832570638883947 0.0
139 1 2.7162895090161796 2.3621705244152853 0.0 -6.851870623337736 -2.1371374193794224 0.0
140 2 6.446816069932398 3.708675916958646 0.0 -8.452150548897006 3.1531310261091425 0.0
141 2 2.9123378517380907 15.211830006976806 0.0 4.659828384921138 2.9062744477232907 0.0
142 2 3.756634302108102 7.615240852512025 0.0 11.009034944092932 3.593182719262586 0.0
143 1 13.726824839410996 18.563097035175385 0.0 -0.15876100576918573 -15.21984837672583 0.0
144 1 17.203065980656007 18.422228609974194 0.0 8.614785765742292 -11.22481149809209 0.0
145 1 19.29203900961719 10.871408391601088 0.0 0.42255584970286836 12.257552786182465 0.0
146 2 8.644024798833533 10.373122471236016 0.0 6.517519394806296 0.9198271544311162 0.0
147 2 18.42328254055699 1.0761572647342175 0.0 -2.47607819473537 -3.0973401941058896 0.0
148 2 0.25867957365365923 3.378758107337043 0.0 7.1030062044993585 -12.445533281014553 0.0
149 2 12.370615181928487 6.008560511846472 0.0 6.549715589446305 -1.7549202164127267 0.0
150 2 13.437295105932089 15.67580110803607 0.0 -11.05326187340275 4.694032132359922 0.0
151 2 7.676175526306662 5.806693379710766 0.0 -2.5550893943932067 -0.387341971040856 0.0
152 1 6.63031133454662 1.616168159188764 0.0 -24.294800417023875 7.766584526242987 0.0
153 2 12.672828362105994 14.893570857766226 0.0 -5.408230564505207 1.4651484498143321 0.0
154 2 18.593406279692143 19.15660973008938 0.0 3.9590354070286167 -7.320444818055675 0.0
155 1 16.847835080596386 8.201370657903677 0.0 -2.2512181682186627 10.54927513743544 0.0
156 1 1.2472156289526184 13.27099628058994 0.0 -0.8724493223921296 18.100229004214004 0.0
157 2 8.637050388910625 18.774084086669884 0.0 4.430216917787628 -0.07119718987413251 0.0
158 2 9.53745040899777 13.462477324134959 0.0 6.531007569528361 -0.07916960323495142 0.0
159 1 17.549030886712636 6.745645201643025 0.0 -1.4099186995323922 -0.7139333726385801 0.0
160 1 6.022793333839426 2.7618902878029745 0.0 -15.200080776346697 -0.7081151140340921 0.0
161 2 15.130796049468522 18.938001535954598 0.0 3.369307444009623 3.6411614397093692 0.0
162 1 3.610897715967761 11.492330946789009 0.0 1.5843959472988123 -2.0714275156116924 0.0
163 2 8.813331983444 12.625401901375442 0.0 -1.5121316768812805 0.24801397631584796 0.0
164 1 5.124616653300582 6.002863825653213 0.0 8.435391138706082 -11.715437428477468 0.0
165 2 7.2392705222753495 17.630171173271822 0.0 -6.430604148629717 -2.179158701439685 0.0
166 1 10.689553763662461 10.218917714205329 0.0 5.642146002783273 -8.997240334739017 0.0
167 2 9.571081520254076 3.6588387103632067 0.0 -3.5314485669486966 -1.0993508247365846 0.0
168 1 0.16661974169381874 4.58813220487552 0.0 -11.571448252820495 1.886282747521008 0.0
169 1 11.365460519258287 13.303210966323913 0.0 -17.045128061930015 9.502279267319397 0.0
170 1 18.575024952990127 5.470719804217683 0.0 2.084426598388015 10.722945311601885 0.0
171 1 14.893646314257884 14.992227695747724 0.0 -0.5114384795484354 10.5209564345757 0.0
172 1 16.30701012076519 4.631481409852263 0.0 1.175925513566566 -2.5888813614839545 0.0
173 2 5.026280376983849 12.60866821701304 0.0 -10.24970835178289 -1.720224059421707 0.0
174 1 16.96500501233104 0.24539122138242087 0.0 -19.372959383621957 -3.131678002432834 0.0
175 2 16.763203212343434 9.407285340389484 0.0 2.7159125978080962 -6.1135056377842005 0.0
176 2 4.145151240854575 12.7372022948823 0.0 -6.32875513570864 6.518646508084869 0.0
177 1 0.6853893873658915 5.219961963799916 0.0 7.013824844026003 0.6810334231098035 0.0
178 1 9.829468778333984 17.77945441943396 0.0 -10.17072714037011 2.2252305227974416 0.0
179 2 15.61976961131059 8.03802776727568 0.0 1.2205249125940343 2.1631692546667813 0.0
180 2 6.886255456774976 11.722785813336989 0.0 -0.9664994830344392 -6.2343379306149105 0.0
181 1 1.1667991556593176 0.7754210099526403 0.0 -0.5871869824410912 -16.383156103086584 0.0
182 2 11.245379144309737 6.5610457250895955 0.0 6.500832946968121 -3.506178749948331 0.0
183 1 3.1077598089476846 11.35200507688076 0.0 -1.6707718794366553 2.9251434875264337 0.0
184 1 15.784759068881488 9.051182319491824 0.0 7.101374775483498 11.65996502162573 0.0
185 1 11.369700821486303 9.814432998941925 0.0 -0.0505728759357274 -2.2801203915576296 0.0
186 1 8.12168704118995 7.951921522006499 0.0 6.537365132608592 -7.884316057086156 0.0
187 1 9.854190768954567 19.317523505206466 0.0 -0.7469064056113051 -1.673184371741186 0.0
188 1 16.95143159010535 5.036296291740596 0.0 3.5444456736473215 -11.726894581030999 0.0
189 2 8.410217387714464 5.108054787612406 0.0 -7.044841166524077 -2.691924153403763 0.0
190 1 10.095091569464197 8.249576614581482 0.0 -9.784084845047689 -8.45038354553032 0.0
191 2 8.336393750128591 11.56436715556874 0.0 0.7704950346387042 -4.2758522669330645 0.0
192 2 7.1546005818699046 7.739853198221057 0.0 2.2683377550694184 -9.11584621665158 0.0
193 1 1.0728898880950353 17.689677227315777 0.0 -0.19871063620530074 1.6234576886684646 0.0
194 1 14.485536149729553 0.8181823948624004 0.0 -9.47297800825532 5.27563242880666 0.0
195 2 15.233229217288947 10.576211234207298 0.0 6.8938648195120935 -2.0903017921584253 0.0
196 1 1.4714597351720025 16.27700593336035 0.0 -1.05605052717121 -5.643677952466962 0.0
197 1 5.970162395446349 16.6113884539304 0.0 -4.435089658917409 2.434731013064321 0.0
198 2 7.889545433758996 6.7722394253252665 0.0 11.749340240682097 2.498748639294076 0.0
199 2 3.9734688293545486 15.728224587638174 0.0 -0.07547140156118068 1.6907059356702916 0.0
200 1 19.265943239500054 5.430495443333376 0.0 -6.786423833280104 12.800163278599253 0.0
201 2 16.368866079805 15.248033971915925 0.0 4.625083828518717 15.016785116215422 0.0
202 2 16.791318505309246 2.1417981689094456 0.0 4.663831028524673 -2.641623265214935 0.0
203 2 10.711013724317876 1.1363770470217183 0.0 -2.1797691095026592 3.581449064128044 0.0
204 1 0.8542807033418742 3.8884684946045702 0.0 -0.20648247436428094 15.33047303068594 0.0
205 2 12.403070341838573 13.976905773329756 0.0 10.835105308524284 -9.749212965376293 0.0
206 1 7.179793307706786 18.9436910248109 0.0 5.286472782497168 -11.438763345296856 0.0
207 1 18.6892940035309 16.221243901251974 0.0 7.453406097278312 -4.707444349794274 0.0
208 2 7.675298737776938 18.315437384131293 0.0 6.765898417530872 -2.3938310681599524 0.0
209 1 0.8823810660794723 11.547527679729592 0.0 1.0751796287092896 -4.4292808792391165 0.0
210 1 0.9787169844284241 17.071711359899606 0.0 6.097260532509445 3.6263395129289284 0.0
211 1 5.858263098427261 15.274032792404725 0.0 11.670231431796376 4.169812540958955 0.0
212 1 14.802847417979827 15.779737896173518 0.0 -0.2169610816391298 10.328281091447375 0.0
213 2 1.2070285764971493 9.080132567364334 0.0 -7.846046002419684 1.542462105599629 0.0
214 1 14.628690010352612 1.3149343640430897 0.0 2.2022175820530157 0.8851912305297203 0.0
215 1 3.4741924395670964 3.0994163005984294 0.0 5.5167110285820415 4.435393287742316 0.0
216 1 5.080342931537541 0.1592195357731293 0.0 -3.6461813001989953 -6.064852854063711 0.0
217 1 3.3441860773350895 19.54918041044523 0.0 3.788282092606883 18.316013799149907 0.0
218 1 9.396623246246795 19.697828834644437 0.0 -7.652148424404223 -14.023216477263887 0.0
219 1 17.36413236978742 5.681317146125138 0.0 -4.127891809396597 -10.452612631532203 0.0
220 1 1.5414087548258444 18.21935837359403 0.0 -5.4741459103110985 9.193509883311172 0.0
221 2 15.26689604830699 4.049944119066634 0.0 12.380965774145881 7.01716898918846 0.0
222 2 17.878226708200554 13.650158068929384 0.0 1.2030054586623393 6.1964448596772 0.0
223 1 11.491586417493044 4.162511219660334 0.0 -0.5874986918330923 6.452277169674394 0.0
224 1 14.716880810133752 4.738929464564267 0.0 9.446632218339866 -3.138396661476017 0.0
225 1 10.799908518867023 18.36925194267875 0.0 -4.394214348765151 -16.50767337784191 0.0
226 1 6.925408924392424 8.544357785878853 0.0 -5.707186386340628 11.295827731279907 0.0
227 1 1.1071667892880852 8.151129536614068 0.0 10.4242596348075 -7.677988093648197 0.0
228 1 12.806719241055612 2.4898835802335393 0.0 0.5066847383496041 -4.398170019339279 0.0
229 2 10.077435119003418 0.5498228387113008 0.0 1.156462826527928 -0.9802189035711918 0.0
230 1 10.735078730035427 15.153906609983146 0.0 -1.740509741968424 3.0916284444713025 0.0
231 1 7.771043119444976 19.184543122581292 0.0 -13.394447391096696 -2.040624574558159 0.0
232 2 6.8987760896693935 10.130251600404035 0.0 -4.972966793501593 3.124228927234634 0.0
233 2 6.171966785826946 17.43849276520726 0.0 -0.776130430346302 -2.8314230026976333 0.0
234 1 1.7188149393755492 3.970636856021396 0.0 -6.50467340801572 12.50273166603807 0.0
235 1 16.36717097784701 16.944290426574018 0.0 -9.648336552177932 11.084948851318554 0.0
236 1 2.014169282784601 18.04671604803827 0.0 -2.2854876863150397 -10.42939228742324 0.0
237 2 3.2586633304576686 18.60444364726268 0.0 3.4508666688732204 -0.23258350572410982 0.0
238 2 6.037557546596233 13.129788953632278 0.0 -13.416708691038744 -6.90074123975404 0.0
239 1 15.739990951866746 11.608233933686877 0.0 9.867583659534265 2.5033187086746316 0.0
240 1 18.164661590969 4.803168167219477 0.0 8.613859796506343 -10.838011920803076 0.0
241 1 13.39398023436424 2.785336358782656 0.0 -5.583913839259363 9.996913844389223 0.0
242 2 15.53425812882629 17.558034860003243 0.0 6.586937602405224 -4.60659634306306 0.0
243 1 13.733493616379533 8.658970665511918 0.0 -0.8961059202776026 -6.052294649042973 0.0
244 2 4.396928634230135 11.834088505812856 0.0 7.194230909249402 1.087180824430524 0.0
245 2 8.640689560365583 15.497958063696064 0.0 1.56090384506994 5.282576587840126 0.0
246 2 11.765191448427686 3.2706977688519596 0.0 1.4251981765976296 -2.313398190533838 0.0
247 1 1.0335045606255135 4.36209443293903 0.0 -5.784133331735429 -2.1230530911532646 0.0
248 2 14.527797331336568 18.03282099946374 0.0 -2.968719760959381 -10.88022342569642 0.0
249 2 2.394643502600792 0.5031086535875458 0.0 -4.559951072748374 2.3873082303153352 0.0
250 2 13.059571960627682 19.257917964620106 0.0 1.8824429994309988 11.058252119106987 0.0
251 1 6.105060922171199 5.388952383400711 0.0 6.126445256152413 -2.3447753802465856 0.0
252 2 3.8049025989520167 8.579388167118879 0.0 -0.3194853872440224 8.309987560462003 0.0
253 1 9.460335764826636 16.977120739785608 0.0 -18.953031732222453 3.5478993640276726 0.0
254 1 11.063482355128135 17.55057900996177 0.0 -5.761572414423604 -16.79961621662586 0.0
255 1 1.0884637882629244 15.66592767036826 0.0 -10.021714753866469 4.237254905575459 0.0
256 2 3.877261230506722 1.9182947331048756 0.0 1.2328561409996284 7.433857067375937 0.0
257 1 4.956174176816603 8.647744650619753 0.0 2.392668653988722 3.144065193099602 0.0
258 2 11.376763706652044 8.439982335163648 0.0 2.144471363152776 11.13914958484016 0.0
259 2 2.8220690017490853 13.839913038109128 0.0 -1.642188410119691 0.9408201159396372 0.0
260 2 9.977247877540298 16.1460926730247 0.0 -2.832604499773601 1.563170086096612 0.0
261 2 1.9062588731640921 8.4324878688947 0.0 -1.6387677505496958 -4.693600788582011 0.0
262 1 9.68035009186566 11.533967523078006 0.0 9.887766536629918 -2.130724542257004 0.0
263 2 18.408801071856402 6.380845535659738 0.0 -9.22512994469773 -3.100570370776251 0.0
264 2 9.039893513774176 6.635455172599289 0.0 0.1726834440343391 -5.824880399580581 0.0
265 1 6.4289206599055415 15.239285729428294 0.0 -12.137753441654642 -7.995822259147381 0.0
266 2 1.6647631400532512 19.712019588671737 0.0 4.12294141305896 -8.191947776743508 0.0
267 2 0.7954435640199327 12.579858177625646 0.0 -8.005246005640094 5.00851400491363 0.0
268 1 7.662167502105405 1.5332797393383502 0.0 6.5860379678624845 5.392047371810256 0.0
269 2 18.09637122492225 9.226334846873348 0.0 -3.9927064116806608 -2.699260873575831 0.0
270 2 1.4777938996669862 3.0728243654044345 0.0 -2.339621262693605 2.8741758626197877 0.0
271 2 13.276336691205175 11.813600938494973 0.0 4.865633891994087 -3.9026552918318016 0.0
272 1 3.0579670784759654 5.383112958652287 0.0 -3.4820848489340097 -15.607584988038294 0.0
273 2 18.706794615051393 11.546690499310644 0.0 -4.997492539392698 1.7794350912792185 0.0
274 2 1.5230245775569413 14.336495564497971 0.0 0.9326551598552347 2.2285619716478107 0.0
275 1 5.726440115298647 1.0591162485977401 0.0 10.123636981654782 -8.442073056401757 0.0
276 1 9.906047122784752 6.725007056494162 0.0 3.9151555621008796 16.015764872009182 0.0
277 1 17.867333831266382 4.026405717077988 0.0 -4.218952761239481 -0.7313279589581351 0.0
278 2 9.838417728871292 4.480336321514748 0.0 2.8329293037819943 -4.2020300876439265 0.0
279 1 8.926865349933093 19.577257143527113 0.0 -6.194788653272669 -11.801204090500827 0.0
280 2 2.7677068575324335 7.858110047197794 0.0 -4.328743676488573 4.360704050224959 0.0
281 2 15.19688212489497 3.1776049281098895 0.0 7.943844004369639 -6.07575141801094 0.0
282 1 18.761318906359328 14.129569720905286 0.0 2.5880166223718177 3.3976914574254664 0.0
283 2 4.999405813125631 5.019265206621897 0.0 6.30584843758838 -0.973132079850585 0.0
284 2 4.032702871432962 16.63880414595996 0.0 3.7811350385046305 8.761855708750497 0.0
285 2 3.7119985050036184 14.181621873844245 0.0 7.603273001446606 2.746266487214262 0.0
286 2 10.584019308108447 3.635032743759594 0.0 -9.039549900254194 13.016066829668285 0.0
287 1 11.18156717673315 11.702515255915193 0.0 2.791311576597326 2.687717834163404 0.0
288 1 15.56528795129307 6.179557252004762 0.0 9.237607158687247 -3.878911659962044 0.0
289 1 2.0785806370892743 15.142274044673833 0.0 -1.7873610890990719 8.561051045418282 0.0
290 1 12.106802975566632 9.676123569437172 0.0 7.812627800214727 -4.25551018532742 0.0
291 1 0.11548470877829907 8.54577583123189 0.0 18.044498333099238 4.309246835236793 0.0
292 2 14.569716643195754 5.637661625555778 0.0 12.842656190835319 -0.5991446140504942 0.0
293 1 17.78514882367001 10.628663428207727 0.0 14.13969159732217 -8.097366517990999 0.0
294 1 6.699043025621598 16.52979485557789 0.0 -4.7603384861018 5.781205755205417 0.0
295 1 8.610514365444846 17.557352377396956 0.0 -16.466876256125115 -21.570474889038472 0.0
296 1 17.26777069595706 3.7537877302144143 0.0 -16.842556984831138 -1.8138661136350733 0.0
297 1 2.593916425202452 9.028738465127683 0.0 -7.23622007771384 -9.35574206836281 0.0
298 1 7.459183222008422 13.59516157330122 0.0 4.719045121975705 3.1928877855580042 0.0
299 2 4.323995408471044 2.9361568378911334 0.0 -16.838933448477405 -2.1685808957360804 0.0
300 2 12.657974406996082 17.403781635414816 0.0 3.5766226188701307 -7.451714131772581 0.0
301 2 5.2530167267145975 3.6294774078506675 0.0 7.468802973504443 -9.049732882885634 0.0
302 2 9.229026102569048 18.2116725340621 0.0 3.7458760397986977 -5.925891376241982 0.0
303 2 15.50727058150481 14.265327192091089 0.0 -4.111622897226256 -14.594842496908791 0.0
304 2 18.202168635210278 2.717135442498131 0.0 -3.5352305259784114 -2.7709948358851277 0.0
305 2 14.352233868728648 9.372501596141701 0.0 5.398343259023219 4.433685040046501 0.0
306 2 5.215858220633449 9.64278920803153 0.0 5.624711360929713 1.2144019103303019 0.0
307 2 1.0398785742767531 2.1143916992912724 0.0 -3.8002899673552712 2.316934257230385 0.0
308 1 18.57840436154964 15.10139393163462 0.0 -14.402728652681303 0.9578909319242941 0.0
309 2 16.01853030541236 0.05651514343814722 0.0 6.683543275964469 5.509090139668477 0.0
310 1 19.54321441852621 16.652353078076498 0.0 -2.6306121480020055 -2.1170347479956484 0.0
311 2 4.621474823163669 7.259734105156789 0.0 -0.7789657055254888 -0.5455618869427394 0.0
312 1 7.881562678882888 4.2288308894571385 0.0 -0.34465398607527287 -8.177538302839364 0.0
313 1 6.496277599199719 5.833340163714472 0.0 10.972747061663712 4.58804393848954 0.0
314 2 4.922139803519953 1.8590881091467895 0.0 -7.061809201077742 -1.2262363925938051 0.0
315 2 19.223137967337003 9.649734459226536 0.0 1.0545214566987375 1.706859667720822 0.0
316 1 0.8638557977110912 14.698018956521729 0.0 10.330304117010174 -5.034232799863642 0.0
317 2 4.7805707440768215 18.681361984966486 0.0 9.382768219884463 3.275420203691413 0.0
318 2 3.966919372784474 4.207001697424856 0.0 -7.031206948868068 6.161739733419857 0.0
319 1 18.040930484518405 5.679298156664239 0.0 -14.997811642022215 4.187686234759168 0.0
320 2 19.15962428016149 12.320159739317313 0.0 4.188397127259721 -4.8564884679167015 0.0
321 1 13.3865742722524 3.533694813051639 0.0 -0.48601604560855194 4.3042806725288045 0.0
322 1 5.714834659000072 19.432131344446866 0.0 10.392270421061543 -12.86522934960465 0.0
323 1 5.498416560502327 14.225064451249471 0.0 0.7686641192830386 8.509425534211795 0.0
324 2 16.006487492618977 13.003593696645094 0.0 12.392717056936306 -8.526835204878745 0.0
325 1 2.1425689819047995 12.110867038420263 0.0 6.749006888678643 1.0290339029384175 0.0
326 1 13.37697302466617 1.1742176220636333 0.0 -4.127028517670469 11.373281601694922 0.0
327 2 13.134752706703232 5.603315799597148 0.0 7.503254952351858 9.995328008023296 0.0
328 1 2.4441874472054708 6.780754853703273 0.0 10.173066127564077 20.489223697107462 0.0
329 1 17.44652848779335 12.693273565561803 0.0 13.792799443808482 -10.702097027352973 0.0
330 2 19.556295363968232 17.495306690190635 0.0 4.650072102804056 2.206456526702668 0.0
331 2 18.95866910452408 4.5223535873288085 0.0 3.886535616683926 -5.013865030192401 0.0
332 2 10.545041342878632 13.253061084234803 0.0 -0.050602331572120476 6.13369415549085 0.0
333 1 14.869125984891099 6.755984342826367 0.0 1.6649982954233602 -9.379503881167611 0.0
334 1 17.599628343672254 4.753573282042407 0.0 -8.256291892031669 5.480662468415529 0.0
335 1 13.110956820411507 3.9104865346718642 0.0 6.796422086680588 17.18417413838874 0.0
336 1 13.1743161917914 4.422639433885952 0.0 -2.177462687625674 -1.8529370992413046 0.0
337 2 11.449343805476467 19.121830945753047 0.0 2.130135091660707 4.527440242148586 0.0