ITEM: TIMESTEP
0
ITEM: NUMBER OF ATOMS
400
ITEM: BOX BOUNDS xy xz yz pp pp pp
0.0 19.7609 0.0
0.0 19.7609 0.0
0.0 10.0 0.0
ITEM: ATOMS id type x y z vx vy vz
1 1 4.211482738441526 16.017091580303312 0.0 -25.293053830819076 -2.7512543700555736 0.0
2 2 9.828732602218503 2.8926637712525203 0.0 8.392554478028051 -7.494861979919026 0.0
3 1 10.709352601540768 6.049606178006667 0.0 -12.549944874321417 9.370718581754453 0.0
4 1 18.095809156281952 4.4164646024587455 0.0 -1.7996903304204057 -2.989634675480168 0.0
5 1 2.5529629293144884 7.7284158672761505 0.0 3.959481832715829 11.898361853348193 0.0
6 2 4.04091808031021 7.525066756070253 0.0 0.7887863273940046 11.56551865874845 0.0
7 2 0.8458198513324225 3.1940998808882464 0.0 10.571532263920568 -7.722478554891015 0.0
8 1 7.37657030091769 11.572412677192341 0.0 8.557017567193752 0.3022222410430967 0.0
9 2 14.979409508671484 14.214687153020716 0.0 6.3254863274878215 -0.24658142339454778 0.0
10 1 13.787135857112341 3.3178232993325016 0.0 6.16674935137806 -2.2275697025214947 0.0
11 2 4.588529805416941 15.074731947942718 0.0 -0.6649017704750746 -4.607981940816719 0.0
12 1 2.1530258924151853 13.348157640003647 0.0 7.226114958709471 1.707068312024073 0.0
13 2 0.6450516018114575 15.34762435279337 0.0 -6.983603759100429 4.582647343252915 0.0
14 2 2.781195347327124 12.912000532278928 0.0 -13.17567471718345 2.56753250204978 0.0
15 2 11.804305998904576 14.399443799254168 0.0 1.7482857925637583 -6.251479912047956 0.0
16 1 8.574135093036432 15.498328901413998 0.0 1.1211950433081503 -7.0357019610502665 0.0
17 1 1.9716593768936062 0.2935350968827567 0.0 -1.2104286600039542 -3.2453200303116603 0.0
18 2 13.946772615410552 1.6059318115209351 0.0 -1.7045235515741948 -5.768139323422281 0.0
19 1 15.932812044312763 14.37017604433039 0.0 6.75540195110983 -18.957640372520423 0.0
20 1 13.992099283265382 6.100974519749718 0.0 0.5177381656098358 6.56986047705586 0.0
21 1 4.620892754884998 4.311238402764952 0.0 9.5715068595859 13.540438689280144 0.0
22 2 4.090984550531131 10.296198706320759 0.0 -0.8369482120865446 4.687066534631866 0.0
23 1 16.27196644513494 17.357620261499445 0.0 -6.240898563966678 -7.664152062837774 0.0
24 1 10.571976899034317 0.32223605055825355 0.0 -6.201627477503151 4.584961652819768 0.0
25 1 7.760713200545227 17.562707267646243 0.0 6.516841291406646 -6.77933551288448 0.0
26 1 6.132878220969333 3.0208489962593372 0.0 -9.504350621047102 9.983304489259067 0.0
27 1 2.361080817759255 5.653495514399596 0.0 -7.3489872986151115 0.7493634162012794 0.0
28 1 0.6845137459747968 2.1718532113895144 0.0 7.428202001292231 3.693449631355919 0.0
29 2 11.753836305826395 7.090709776726567 0.0 -0.127949972006731 -1.091873272605132 0.0
30 1 13.378389424286878 9.600293352060799 0.0 -17.307627219640867 2.9373708129743985 0.0
31 1 2.8247801977087352 6.835034125099123 0.0 4.664082965169998 3.83364324290832 0.0
32 2 0.24419766358224937 6.80135636959239 0.0 5.026624782861995 -1.6068110312801847 0.0
33 1 5.397139193894935 13.333710593206648 0.0 -6.882915364784708 -7.696666825378219 0.0
34 1 10.259717181616262 8.727737509508895 0.0 -6.450113967859101 -4.015534134388153 0.0
35 1 15.184359067932348 16.893388491788357 0.0 9.309277201186092 -4.652022553629362 0.0
36 2 4.554728700594482 12.497742122440233 0.0 5.195577714592145 -1.5934543199929647 0.0
37 1 15.804218948980331 15.294317208723035 0.0 9.136806048170538 4.993765743674949 0.0
38 2 7.617989279357134 16.766845364730862 0.0 -5.502557222212059 5.686451048052162 0.0
39 2 8.795103217072405 9.21355799272807 0.0 9.804112900226755 2.2590405382294008 0.0
40 1 3.5549458291035965 0.26030932147569275 0.0 -2.5877618761517343 2.9645363794008492 0.0
41 2 17.83115617792634 9.878488688858187 0.0 -4.056321495916918 -6.599073474834791 0.0
42 1 11.194309833790427 6.318075903627849 0.0 2.2160143343310743 -7.271955419773325 0.0
43 1 3.0507735586812372 14.499932858753981 0.0 -1.0362623268638869 6.311068247784794 0.0
44 2 0.8134903866612175 14.411335510621406 0.0 6.824753123975574 3.8776386304302783 0.0
45 1 10.018774559005145 10.510709510034506 0.0 8.230151859279557 9.134999048773341 0.0
46 1 5.762008408479393 18.44936760038369 0.0 5.717761920580366 -7.965847646275445 0.0
47 2 2.0158222770440335 10.472373242837657 0.0 6.826981824240805 -2.0742614686403233 0.0
48 2 12.643923738981684 4.076897255099134 0.0 -9.436542706174608 -1.2006026633447173 0.0
49 1 3.1567351215078223 4.803503439753646 0.0 -8.467352738105982 6.327740383535296 0.0
50 2 9.627286036785195 9.712082440970047 0.0 -0.8471733798034932 -2.6751859573775554 0.0
51 1 17.24772080029248 3.7226250443396918 0.0 7.065614540320274 -2.1807074161257236 0.0
52 2 10.677800796990324 3.63121415318745 0.0 5.477510337775595 -2.5198930466572853 0.0
53 2 10.370115140759882 13.602131302877586 0.0 5.266623122359806 -5.969123887585629 0.0
54 1 5.495359578920116 14.821534284674508 0.0 14.534760991438066 -2.111503670266768 0.0
55 1 0.09601003364604624 17.158778968916494 0.0 10.550303111216433 -3.6707534640335857 0.0
56 1 15.477890967940908 1.2682230911514045 0.0 9.106796316787293 1.5591420992358875 0.0
57 1 15.95804800678646 16.519264868081386 0.0 -7.493627701828308 4.941961507721057 0.0
58 2 1.2664924844995276 13.633772113467339 0.0 -12.004382851541157 13.610480195671883 0.0
59 2 19.035274035340368 8.968341152833855 0.0 17.615595161327413 7.208822877904047 0.0
60 1 7.049874202998138 10.54341454642496 0.0 -4.955794662820636 -0.585362466750007 0.0
61 2 15.16522470627768 3.439409737777556 0.0 9.327460956611937 -7.40356567153686 0.0
62 1 7.796867565498667 11.270096175344598 0.0 -2.541243991569538 -6.154341252098334 0.0
63 1 11.700379524814082 3.974816119444603 0.0 -2.3673253475449485 4.0797197701913035 0.0
64 2 9.45296996869747 13.058214290186315 0.0 0.7295317426540451 -7.6642831508857165 0.0
65 1 5.549705717245967 14.23673470210317 0.0 4.157798583016249 -1.220611519434077 0.0
66 2 13.712217075824194 7.396541309476293 0.0 -4.908052587219457 -9.440278161868822 0.0
67 1 14.909461418349924 6.93603645137139 0.0 -0.047044671671390585 -10.238166956602488 0.0
68 2 9.522026542072979 11.263457946221855 0.0 -14.004191293602704 -10.857827411658171 0.0
69 2 9.118612380687564 19.50572990607184 0.0 3.974820407799397 3.82458791021815 0.0
70 1 11.801422606477677 2.540271347030422 0.0 14.960964327496162 -4.158679115751062 0.0
71 1 7.660104045737712 12.780203503921868 0.0 -2.718448083802359 -9.546184981224766 0.0
72 1 2.683433555101514 8.875809690284012 0.0 -0.6143199452996676 0.6463385960419611 0.0
73 1 19.519081410031955 18.044854143149266 0.0 3.3317076298212993 1.726029100856556 0.0
74 1 10.342610760492525 0.8622542158890997 0.0 8.75190684505862 -11.310194874060182 0.0
75 2 6.240638701935649 1.1156150174400505 0.0 14.863541828690572 -12.568970103155955 0.0
76 1 14.66809769818903 16.005040761642228 0.0 -21.16322253079507 -1.733124165758119 0.0
77 1 17.519629822096775 3.1385757834703734 0.0 -6.083873476962731 4.227513774855159 0.0
78 2 8.638864558147183 2.2156145089416652 0.0 1.403000371197451 5.430797599957404 0.0
79 1 11.354606534078938 15.691260286240793 0.0 -13.408810375375614 5.713747047521932 0.0
80 2 18.737545321964607 14.164193523917 0.0 -1.306589049000718 -7.856347624752895 0.0
81 1 4.55176221208537 14.261961917383061 0.0 -8.089402473117977 5.097583135299996 0.0
82 2 10.49507933402294 4.447080565227004 0.0 0.6153020488685431 -7.36744568619844 0.0
83 1 7.7378031656790105 3.925846729642512 0.0 4.1856484903335005 -1.509304109136628 0.0
84 2 3.541468543073526 17.45350151527065 0.0 4.909268881722028 -1.882734739233049 0.0
85 1 1.4756339334295885 8.174056284124736 0.0 -6.546805559160681 -0.9588521648509732 0.0
86 1 1.1661976250535842 5.235590850173126 0.0 -11.38227295469109 -2.3009055062707455 0.0
87 1 6.0413727359592055 10.263880503147803 0.0 -6.440484462329525 0.2271300091701891 0.0
88 2 17.725676380332715 14.794149465013367 0.0 2.26181551574969 -3.2103170946034805 0.0
89 1 14.310633839523533 15.699945372271644 0.0 -11.199671550463599 7.220786853104621 0.0
90 2 12.60130122842051 10.757581980379474 0.0 3.202369722699857 5.722201452821016 0.0
91 2 18.7488474039779 0.3805545254008106 0.0 1.2726992394815977 -6.909536809197404 0.0
92 1 0.19829806070884298 3.8882607292761957 0.0 7.7379097410906015 19.6888916212232 0.0
93 1 19.22462258071932 18.738661705357195 0.0 4.221756906815694 -0.4390128284874751 0.0
94 1 1.7807401760625032 18.835919042630906 0.0 4.2480049831651305 -11.750709793675819 0.0
95 2 3.6586182605578785 15.38281088032514 0.0 3.013219697041646 11.161057296904236 0.0
96 2 6.301004953298875 7.847660338770984 0.0 -3.1028941270582244 4.289921804191618 0.0
97 1 7.56118407982734 6.771782718552582 0.0 -9.035653231110453 -9.70323612596041 0.0
98 2 18.662750549249942 12.22207403165031 0.0 -12.317549148837957 -6.495662004823838 0.0
99 1 6.930222469167559 11.97150339265634 0.0 6.310793173232588 20.799168403444472 0.0
100 1 16.33894730061268 16.867733094503333 0.0 1.814488896883746 -7.345314640996513 0.0
101 1 5.93003599808864 15.199433345863365 0.0 10.197970200542203 5.952421382053614 0.0
102 1 15.347591869181429 15.403468848461298 0.0 11.987602506677 16.661389990202935 0.0
103 1 15.822092312411113 17.708451576061012 0.0 -2.286939470654407 -1.9695810497998456 0.0
104 2 13.53869737966981 16.543288405141645 0.0 -1.1936557569177488 -9.556539092841986 0.0
105 1 1.681294713298757 14.439796358339539 0.0 2.8918402026470784 7.56440019627026 0.0
106 1 5.720694842232458 8.401158975653754 0.0 -3.7258276781858672 -13.594234682055864 0.0
107 1 2.1205007095690145 17.107193986749447 0.0 -2.0853622135158743 7.73773972412066 0.0
108 2 14.717687561821045 7.723096265505896 0.0 -6.621965064628363 6.910135482585749 0.0
109 1 12.266097197006642 6.37081159443081 0.0 -11.076742858664021 -8.057955588429424 0.0
110 2 6.078317312989595 0.06220736278207913 0.0 3.5585365883526614 -0.4409028618200179 0.0
111 1 7.95460875721609 13.384972337879471 0.0 2.781951870343034 3.24695003138798 0.0
112 1 16.451310189845465 4.811518865473836 0.0 1.8868457450175946 1.663547317159542 0.0
113 1 2.1000057626160524 6.558772315091288 0.0 -6.745522069484939 -8.313993714037682 0.0
114 1 0.7260115673347749 12.916481256502541 0.0 8.98352146775104 -5.469450577334423 0.0
115 1 0.5365833901918955 16.67668651371694 0.0 -2.5931195665602638 3.117586193302058 0.0
116 2 9.111043769599913 5.84342516209814 0.0 -5.643153992972136 -1.5986796940285253 0.0
117 2 13.767387441329895 10.497435777379057 0.0 -2.5494760133180536 -5.299050840101362 0.0
118 1 13.544095292756474 13.105679820442406 0.0 5.01207598370684 -8.743156286527357 0.0
119 1 2.8512675199728124 7.281545792044913 0.0 16.744863649936722 -12.872194089528934 0.0
120 2 7.416792128056547 5.531812001778744 0.0 9.468470631053538 1.4768492261900354 0.0
121 2 8.352820441070227 0.3294875673663304 0.0 3.854266244349419 -2.165459402309157 0.0
122 1 15.878920957450598 6.753930581731074 0.0 -6.169694976704044 3.404664715356983 0.0
123 2 1.2470448846136775 4.229660538508531 0.0 -1.571625433624999 -1.1418264102143305 0.0
124 2 6.404773500769197 5.716198869859934 0.0 -4.355141764046453 -0.9953054426529749 0.0
125 2 14.248694984250864 18.899985967445662 0.0 3.9025887694225814 6.883303743830232 0.0
126 2 15.063091268251526 18.050753256745995 0.0 -1.9286527630285744 6.88470983463805 0.0
127 2 6.777064835450457 7.052128255946785 0.0 9.358440251070578 -19.278669590616666 0.0
128 2 19.6255805381844 11.29905683398391 0.0 7.008784920358572 -2.218082452810189 0.0
129 2 13.583667712095494 4.48204354202975 0.0 -0.18087265859246446 4.958825499670514 0.0
130 1 9.023197665620064 10.635356400012263 0.0 -1.8045228599568097 -20.17980997026581 0.0
131 1 19.75473150359669 13.584742701060966 0.0 -4.758986178760824 -13.570030127455675 0.0
132 1 1.6624731328844702 7.524465856380798 0.0 -14.374756510984234 16.832748848672075 0.0
133 2 13.07179854859632 5.450246793553743 0.0 -5.725229264435157 0.6572561257222348 0.0
134 2 1.1791611863248577 11.641857749172203 0.0 12.815189125813026 7.396655417573888 0.0
135 2 10.951194831698434 8.189337836527603 0.0 -4.31075375000525 -2.376807265595565 0.0
136 1 18.17653820912141 1.583729606791978 0.0 -9.127395274190166 -1.3883458679971417 0.0
137 2 6.712320700851982 16.784289585947494 0.0 7.309979176227438 -8.526119361277376 0.0
138 1 2.594437466620445 8.298240871286664 0.0 -10.459510899122675 -4.814472592241323 0.0
139 1 5.385063399766295 9.360472817985869 0.0 17.951184040204225 0.18445945074310105 0.0
140 2 18.462227907481903 10.50989767398463 0.0 15.915837103611503 -4.728895313222036 0.0
141 2 18.71910997771678 15.89049667577159 0.0 8.128588466827813 1.2750077626763479 0.0
142 2 13.736043674377234 2.4894934216468254 0.0 -0.10266001882936064 -15.259366248295612 0.0
143 1 2.85448999589448 13.817786590167291 0.0 2.214394309023736 -4.2811086571643475 0.0
144 1 6.446157886907002 12.243668098471291 0.0 8.260603850012073 -2.535447499266776 0.0
145 1 11.244273469115502 5.145505873229189 0.0 3.9302227292094964 -6.623404259420834 0.0
146 2 13.093532022335582 1.23033807750553 0.0 8.079451971023552 3.084333129107095 0.0
147 2 0.5170635620113873 0.7910277233266912 0.0 -7.502912025911948 10.858533026169157 0.0
148 2 1.4003496682348349 1.8134198479843406 0.0 0.08343779911883886 6.3408252122735815 0.0
149 2 9.616980536013815 15.75900231195773 0.0 5.370545694648847 1.8628650109327372 0.0
150 2 8.200624408766469 7.343782704222975 0.0 5.113499199691294 -15.815739041076899 0.0
151 2 11.504339732247685 19.664033268779267 0.0 -5.531041432355078 -0.33348956220464976 0.0
152 1 11.86560510357443 12.57872776488414 0.0 0.0356905987752537 -2.5486140077727195 0.0
153 2 0.5505650858112252 18.31460958936702 0.0 0.9424366646192441 -2.445802066451618 0.0
154 2 12.602429868764792 3.1170698100975587 0.0 -5.548765008878441 1.4878670249147632 0.0
155 1 15.497173256216218 18.82428288390709 0.0 -2.7107270047980068 -1.8391949833485433 0.0
156 1 7.449497054268308 4.5761010973517475 0.0 -4.764237952238391 7.785565680997908 0.0
157 2 13.147758458589376 18.522892086017713 0.0 -0.3714387193242642 -0.8881165900957019 0.0
158 2 17.555048701318476 17.80543907048802 0.0 8.0032860990406 0.8790988480920439 0.0
159 1 1.201112850790957 18.886975929461112 0.0 -0.9538465761969542 1.2530524791518676 0.0
160 1 15.964798599621874 18.798354665361416 0.0 -4.492856539804978 10.674840955347294 0.0
161 2 12.914530681073723 2.2841433463520318 0.0 -1.0845120184810255 1.7861430791402886 0.0
162 1 8.606674987492445 12.09457525802983 0.0 2.6713792428083565 -21.158696622675706 0.0
163 2 12.89887339621914 12.709840133962508 0.0 3.388936498583461 -0.8404698923585362 0.0
164 1 9.216169783800607 4.613069502456044 0.0 2.311457187838374 -6.88714871191155 0.0
165 2 10.723591419362773 7.336736170028287 0.0 4.295512410093956 -3.245339178124366 0.0
166 1 16.206890750213095 18.330214075863797 0.0 -17.296943997368235 -0.40946471538159995 0.0
167 2 9.072653965696368 6.7185592910989405 0.0 -12.170735064047964 -3.1787951388592464 0.0
168 1 8.549764436053845 14.437894248240331 0.0 3.0791627518743505 2.9470251798679405 0.0
169 1 12.087553066108798 18.11446238459805 0.0 -7.172790093949021 -21.387170860487405 0.0
170 1 2.893025570324409 5.968888254462485 0.0 0.7941783914706303 7.734652505605153 0.0
171 1 7.247828840236389 3.390041439936459 0.0 -9.385246569507013 11.662799711915536 0.0
172 1 15.155563862380525 1.865549538801321 0.0 16.224821730247594 16.347968120662934 0.0
173 2 7.213561010246791 15.891363062397636 0.0 -10.219902141043418 1.903767725261538 0.0
174 1 11.752302622567397 1.6934956044560185 0.0 -8.41428769012206 7.192753974412022 0.0
175 2 12.691209898363814 7.129231457030638 0.0 2.7640970982175266 15.99138250791761 0.0
176 2 4.35917733096316 11.543737842394314 0.0 6.2372208542692 -0.7539767658850673 0.0
177 1 3.2202009023081786 18.55513573600689 0.0 6.091199640605388 -6.982197770407863 0.0
178 1 8.200243630870885 1.2920116286947578 0.0 -7.763627761991583 -11.143766966666375 0.0
179 2 16.725220379948492 2.151216242069729 0.0 4.038997237908796 -2.670585261654984 0.0
180 2 18.007442152705842 9.073064944329973 0.0 2.9953687177857358 4.950104843984631 0.0
181 1 1.7833892337729662 15.130688887515847 0.0 -26.437879042353575 14.108547841033566 0.0
182 2 18.724049234745717 16.990375525547673 0.0 -5.542069247509656 9.328586925330276 0.0
183 1 10.580891124577201 1.423818019494403 0.0 2.7805634201903136 0.1414852864724545 0.0
184 1 7.773376366209382 9.233211121849646 0.0 -15.712261368479927 8.669260400244568 0.0
185 1 2.2370075942032837 1.7855519698457374 0.0 1.6040134494659375 -3.0228295270628016 0.0
186 1 14.454800091323879 17.13076108972534 0.0 -3.900648555102387 12.676391261309153 0.0
187 1 10.496933527675475 18.285698760331183 0.0 -1.803795464889023 -1.737069942753988 0.0
188 1 15.458039617747014 4.622510540585843 0.0 -21.438531844684412 9.635684979893524 0.0
189 2 2.291321216681117 11.692068716719351 0.0 -4.132986070262049 0.12990283870816838 0.0
190 1 18.41791464759282 4.7263431900236865 0.0 4.546720918227908 -3.8023842747766965 0.0
191 2 6.77411788064163 15.17806204058996 0.0 17.82026978007535 0.8986352564305731 0.0
192 2 16.504323690944034 1.2655838180602181 0.0 -1.929415867002879 -1.424990081980736 0.0
193 1 19.455039038952226 16.760892974282285 0.0 -18.491018524571835 12.791904443427404 0.0
194 1 14.02472251960675 5.622874236510537 0.0 9.434333498884708 12.827437021788217 0.0
195 2 11.084087430284864 9.288410920910982 0.0 -5.5553871158553605 -10.821892053380974 0.0
196 1 11.876318174349237 13.317082514506144 0.0 -7.604888560871504 0.3252530629823691 0.0
197 1 10.435270299891542 11.35413127292074 0.0 -1.0845663504609746 -9.631673597482573 0.0
198 2 5.390040488734896 1.0037785047558938 0.0 -5.230565885155664 -2.312784271022978 0.0
199 2 3.559548376210287 8.276352347770487 0.0 3.942201203651449 16.521914715838314 0.0
200 1 18.72842098976739 3.250376442160079 0.0 6.9245148121193285 -4.708260048543673 0.0
201 2 2.9271641309117395 10.447087298303483 0.0 -8.20752168511336 3.7067480877940415 0.0
202 2 8.288936032069369 6.120684440804868 0.0 8.131208724247466 -4.072305201926418 0.0
203 2 19.583333836645465 15.954744888223892 0.0 -2.9765612309524196 -1.939031012040885 0.0
204 1 5.639449847313103 3.3604399102672176 0.0 -11.817610651298827 16.424335590527672 0.0
205 2 3.6460858447127023 6.156957427197429 0.0 -3.1001151392560256 -2.531859394877031 0.0
206 1 11.681100194429952 3.2312669763662734 0.0 9.10843265138871 -3.8571471886066266 0.0
207 1 8.899432588806537 16.05958817132264 0.0 1.4646362702213491 -1.600796873141569 0.0
208 2 15.449352667415884 2.626370637703277 0.0 -12.038192427834899 -18.552277910495715 0.0
209 1 5.454030148919823 15.58114091429181 0.0 1.5096985100938147 -16.780873404903577 0.0
210 1 10.443455138185076 19.236013993657465 0.0 5.167189484653301 -10.50597011517772 0.0
211 1 11.649785774057433 18.67309023948829 0.0 5.183332916198885 7.663710238296576 0.0
212 1 11.996166750747475 0.749163262267746 0.0 7.097070883383041 -5.132980031754077 0.0
213 2 6.882138383389633 13.083064898951616 0.0 -0.16761472778043884 10.595476161290899 0.0
214 1 6.939513010844924 14.26004445953804 0.0 -8.217180058739972 4.038555718704214 0.0
215 1 7.369331849680373 12.388828252785157 0.0 -4.278568824975402 13.264803397290978 0.0
216 1 17.02034964423432 17.005554976014825 0.0 -5.371947368403016 -16.81039956694455 0.0
217 1 17.905825618056657 5.525030006661823 0.0 -4.84272831778824 -13.470367590945983 0.0
218 1 2.954785604142544 17.007900718558023 0.0 1.0160559938957259 1.3057068544331731 0.0
219 1 9.341923634410985 14.746433090568235 0.0 7.760861718798406 11.376105336557018 0.0
220 1 2.2745849444159765 7.341312859881724 0.0 -4.783014066662054 8.964025803431499 0.0
221 2 18.27987405707604 7.5552565155263895 0.0 0.08384284128989952 -3.7365536439903004 0.0
222 2 12.713407847705462 13.835094959304854 0.0 0.3327610307341625 -0.8012854729337586 0.0
223 1 19.08833038764524 1.0965298407469415 0.0 7.535955601385438 14.675406655575001 0.0
224 1 15.170610315257248 8.557678113556548 0.0 5.5183542952422435 6.097744856409122 0.0
225 1 16.401100689543153 7.62625515390583 0.0 10.314759668184617 -5.295634917151656 0.0
226 1 16.022254281041285 12.237128555380622 0.0 0.8404616410281902 -8.347303038679723 0.0
227 1 1.6972539451028055 6.425924256052934 0.0 -17.41512347689108 -2.3492724952813075 0.0
228 1 8.229008586447394 4.040613553801661 0.0 -4.681066374442158 17.943374971159614 0.0
229 2 1.8649841174151014 2.563930028283473 0.0 3.090139777396476 -8.73450936056045 0.0
230 1 7.178205634832601 9.49517023737944 0.0 1.9063006014754755 1.812452282092606 0.0
231 1 15.1156231886814 11.701990119523883 0.0 -3.1809896586326483 -23.18627439145597 0.0
232 2 12.92943492462851 14.722588462088167 0.0 -4.881523103034185 -2.7826506480140667 0.0
233 2 13.566645110700899 8.618633447313977 0.0 2.2928873908911647 15.373898579904363 0.0
234 1 2.156456595414358 4.772781856542968 0.0 6.320052696354186 -2.8238906454159833 0.0
235 1 12.332733676871669 19.635678782491663 0.0 -4.240414196854237 15.246406235917437 0.0
236 1 11.209887073857475 16.24877876068142 0.0 -1.9498097948968205 12.423493422213205 0.0
237 2 13.660830092865766 17.789388299422658 0.0 6.058861869270721 7.175181348669797 0.0
238 2 4.686973365421498 6.777112406031094 0.0 8.496005716723168 6.938846461942503 0.0
239 1 16.776755475189592 14.123681807149742 0.0 -13.965228928268889 -9.12535960761919 0.0
240 1 2.949729549511888 4.334625376522417 0.0 -8.210948122282685 14.339395740426468 0.0
241 1 0.27577650870488646 2.4230806428158767 0.0 2.764500138702564 -1.0444761877964948 0.0
242 2 6.9918956504360965 0.643366582503374 0.0 -5.299453085459691 -0.5237026075208192 0.0
243 1 10.844830235603181 16.58191215444911 0.0 -22.55094967836313 -4.721347584546694 0.0
244 2 19.719258828303897 8.32761878842575 0.0 2.0602706982524754 -12.557553167155405 0.0
245 2 12.165221070022858 8.329837181890966 0.0 12.910306343089381 -1.7606492070849271 0.0
246 2 11.909672747249402 16.9892156179608 0.0 3.995028366441186 -0.41367290254530104 0.0
247 1 0.11973279209081777 1.7227794653190913 0.0 4.770913758514328 6.464000732312188 0.0
248 2 16.165330370523634 0.3626830922480697 0.0 6.131404290373506 8.350093468183774 0.0
249 2 17.150526944461316 7.714419966205672 0.0 -3.0815277609640064 -9.028587007403273 0.0
250 2 8.132701744142675 19.150217111318103 0.0 -4.912710707747765 5.995315661800212 0.0
251 1 10.051590593552804 16.460132974144088 0.0 -7.901133248096607 -2.428011361512309 0.0
252 2 2.7739554154003687 19.710753494948495 0.0 -4.40700244969825 -6.78529257763672 0.0
253 1 6.1275195661041595 13.385188011312277 0.0 8.346626721730042 9.330738637253804 0.0
254 1 0.9463705955725694 16.930761790895353 0.0 -1.783272064401438 16.087016783908005 0.0
255 1 3.738032213763666 4.247516407611288 0.0 21.416171607630524 4.2706562044748955 0.0
256 2 8.364431485626453 9.963545366850026 0.0 -11.573664191235434 -5.102923167719069 0.0
257 1 17.260808962500384 12.557067654611842 0.0 -8.009567110602152 1.4870318199447692 0.0
258 2 14.798245368071068 10.399648682863127 0.0 -10.810487061364336 1.5068544301143476 0.0
259 2 8.42394105834934 3.290861318926941 0.0 -0.06278458818893841 2.354194914719007 0.0
260 2 4.788483847770306 18.291603629327255 0.0 -1.1122919789886079 0.10288437367689877 0.0
261 2 1.3063865321840376 9.720936702322954 0.0 3.479234770570888 0.9040360972475925 0.0
262 1 3.3846718382447145 0.78735892794743 0.0 -6.988346973859202 3.314495944547914 0.0
263 2 4.35556851233383 1.551700318990922 0.0 10.042504097572136 3.7198432889658255 0.0
264 2 10.734421835764842 2.286253751838708 0.0 8.495993958532042 4.900106443213911 0.0
265 1 6.6775304095699815 9.66776922334015 0.0 -2.5924116663240544 12.661503464297134 0.0
266 2 11.875488893202764 9.686459835240662 0.0 3.2299605476166104 16.82596367557923 0.0
267 2 9.820430895568892 7.230190954371599 0.0 -15.287781673366284 2.025658274159608 0.0
268 1 19.214540965446233 3.7303029074558514 0.0 -0.40417108553865355 9.71161310145988 0.0
269 2 8.963715414574668 0.8856325161046157 0.0 -0.22230712342051578 -2.2011548556412888 0.0
270 2 4.73894741733585 17.416205720788373 0.0 -2.3323643731262607 -0.8792843849475805 0.0
271 2 2.3456074333732473 3.624462474129489 0.0 -3.540359161222373 -2.5970879230915256 0.0
272 1 7.098422644858493 8.284269159468929 0.0 2.1264389401813837 10.427405791002041 0.0
273 2 17.181134529880236 9.320725983687016 0.0 5.541231833765569 -4.621522312189813 0.0
274 2 5.351891482654203 5.926186925969919 0.0 -1.050214312240199 5.598849149489113 0.0
275 1 7.2187044304190495 17.742201692478456 0.0 21.744035245299234 -6.236243154730859 0.0
276 1 17.29528810311239 14.101831240033865 0.0 -19.12395122332035 2.553398288094203 0.0
277 1 15.065610905432639 12.855692627725336 0.0 6.441455855678254 10.226765969674231 0.0
278 2 5.551069054503075 11.059381988675169 0.0 -7.048823584092652 -16.205685763270456 0.0
279 1 15.274286503232648 6.5619794087814265 0.0 -20.3904913365903 10.781327741853934 0.0
280 2 16.244330223597657 3.0154705932276302 0.0 -5.442209849891319 9.196852694557068 0.0
281 2 3.2836479609677482 16.18716573853095 0.0 -2.495786732921787 3.584466499929451 0.0
282 1 17.876669385606355 19.143920811645227 0.0 5.159371488696577 -6.263785868656448 0.0
283 2 4.924687478532038 8.036188166243791 0.0 -11.840514669089336 -3.5260094113534146 0.0
284 2 17.038967546962265 18.91073920781035 0.0 5.6873046965559695 -11.254092891360274 0.0
285 2 7.123776454959147 19.152337114363398 0.0 -13.436694785081155 1.3978091522504241 0.0
286 2 1.5370596087867328 12.542364399980473 0.0 2.118239152389054 -0.24352908338567109 0.0
287 1 17.34913347672131 0.896722310991123 0.0 -13.732853865500442 -2.4612715344557072 0.0
288 1 1.0875877585601272 5.657623186756162 0.0 -3.9487116377234677 10.790251466646122 0.0
289 1 8.607703061256087 13.877047081576285 0.0 -0.7402868810611182 0.7095384179862239 0.0
290 1 3.9134619437568285 18.129207691007853 0.0 0.48723522905126304 -8.877155882230554 0.0
291 1 7.111192227577607 1.9361419873214498 0.0 1.5491761193158615 -6.5570062654251196 0.0
292 2 5.513921700749336 12.039379628262038 0.0 0.7893824804870546 -4.458657461631783 0.0
293 1 12.110039575505162 19.10275378949306 0.0 2.681057265284905 13.583697662945415 0.0
294 1 2.216281461543055 14.926633854210047 0.0 -10.955802121008212 -14.826822065936618 0.0
295 1 17.436243035447145 6.090005063282314 0.0 -5.903217971476838 20.291001416899306 0.0
296 1 14.890881866882724 6.0589579033284275 0.0 1.6545892331778367 -2.3463372425622557 0.0
297 1 7.922826439834037 11.798409843723439 0.0 -7.42879470697127 13.959345262303035 0.0
298 1 17.977672242351346 19.599625109286688 0.0 -8.554295086391349 -7.602225761413763 0.0
299 2 1.8044625696709915 16.127204025919955 0.0 1.9019124453635623 -4.819475295602122 0.0
300 2 7.807123894845127 14.91231690936103 0.0 -4.962269880351033 5.564577225487136 0.0
301 2 11.266440062702502 11.66022598381805 0.0 -2.7567279427151186 -4.219723485008232 0.0
302 2 13.176861503179744 6.343556924208999 0.0 -6.446658523661996 -9.73161454914469 0.0
303 2 8.527457672635762 17.934183056313046 0.0 -4.848534249659703 -13.591025595979374 0.0
304 2 19.473994406919253 7.509534342874883 0.0 0.4754357372443689 3.3737544965396484 0.0
305 2 12.716715075298206 17.302583461635567 0.0 5.2192172475294125 2.44294630024033 0.0
306 2 15.325084899256051 0.11054206045591614 0.0 0.5500299095896743 8.528176827286632 0.0
307 2 17.197984353160063 6.843287074429468 0.0 -9.225341711970817 -2.743399927978505 0.0
308 1 3.7686170934282077 13.394076955853167 0.0 -0.9735285460748234 -7.5512388101870345 0.0
309 2 7.721283707056863 2.4702211077037886 0.0 -7.621442340502324 1.6356078194793984 0.0
310 1 16.838296990183828 14.61391903808193 0.0 -4.388863907863835 -21.16551637404793 0.0
311 2 1.1492678794459525 17.73965976985772 0.0 -10.615755324749859 -4.918685667269079 0.0
312 1 16.989762653033047 8.574694838477571 0.0 -19.522601131771996 8.931604763888833 0.0
313 1 5.844036834191556 7.172434527509752 0.0 21.475250125077384 10.399973204788687 0.0
314 2 6.456602444399877 17.943928930243633 0.0 -2.737843071022967 -0.16064943427446124 0.0
315 2 19.06711674372023 2.1064740324182067 0.0 1.7105191456043536 5.564384614259704 0.0
316 1 15.040283525494438 12.313115129089029 0.0 -8.057336255173944 -14.488399704610373 0.0
317 2 19.548502635177147 12.890513268158923 0.0 7.811659917939619 13.957461974105433 0.0
318 2 0.2520900251284057 5.453226925237982 0.0 1.647547398289095 11.5250390919937 0.0
319 1 2.8959744568379593 11.210476069520578 0.0 -1.991312716081205 2.690780859304463 0.0
320 2 16.57127906388358 10.065185019580401 0.0 19.21296470409378 -3.8946519958759076 0.0
321 1 17.46180328267899 13.5998962332513 0.0 -6.1113902684891 4.766749282108387 0.0
322 1 18.84065814606909 18.37005679656489 0.0 9.399121676402531 3.2175450197169573 0.0
323 1 18.275948999754032 5.875155472382915 0.0 -8.947951320530258 3.7976228732887223 0.0
324 2 0.7647620148549636 7.596611784711572 0.0 3.2631140615786167 -4.158777120566416 0.0
325 1 16.06886178178236 13.146591635803011 0.0 -1.2356268979509983 1.5481574405941443 0.0
326 1 0.019475343495860983 4.489822239711151 0.0 -6.3908169063158775 5.917172821302423 0.0
327 2 15.86386229511919 10.726362949965381 0.0 -4.776056519690844 8.460375800421062 0.0
328 1 15.804562471828493 13.82152286687737 0.0 -2.732098433760776 1.0209492651419017 0.0
329 1 1.3501230915392302 19.43209127175527 0.0 6.48620490596918 -0.4052700717831101 0.0
330 2 18.144067734888157 13.019803407720902 0.0 -3.0806479611384074 6.176194130165818 0.0
331 2 12.67990527880505 11.654391271341563 0.0 9.64528619034468 -8.583250172641288 0.0
332 2 16.06683941646234 8.800103519188573 0.0 -2.6876848457272584 -4.967314378329303 0.0
333 1 16.51643983472494 15.50886109006961 0.0 7.688661013241518 6.605759730945144 0.0
334 1 4.502235874385277 19.203004532648265 0.0 -1.754395797285319 1.6781072826507515 0.0
335 1 18.341506223540698 11.378420545516503 0.0 5.869219843313179 7.239600393894024 0.0
336 1 0.9603778352983273 8.833696662882051 0.0 -2.726022098008713 -3.684780931322122 0.0