ITEM: TIMESTEP
0
ITEM: NUMBER OF ATOMS
400
ITEM: BOX BOUNDS xy xz yz pp pp pp
0.0 19.7609 0.0
0.0 19.7609 0.0
0.0 10.0 0.0
ITEM: ATOMS id type x y z vx vy vz
1 1 16.753714615069857 5.922224962249619 0.0 4.388760383593743 -11.688348953381348 0.0
2 2 14.438736141250795 9.684711868952059 0.0 6.58131772834679 -4.850617188650389 0.0
3 1 11.920657558876174 3.054637030806247 0.0 13.643249271005315 20.393834958190027 0.0
4 1 4.774113027237242 3.5312020715885164 0.0 9.063085781973768 0.7945311169481776 0.0
5 1 0.7847603947634584 6.339123751003544 0.0 14.60773619396694 13.691008472862777 0.0
6 2 8.405965965273632 15.062900329585121 0.0 6.041158579388986 -3.5293609910949675 0.0
7 2 19.465767180085823 3.9482848126097903 0.0 -4.693309772960833 -3.82594790785822 0.0
8 1 4.348662934158183 16.94837944011994 0.0 -5.028252830991351 -4.368969208550205 0.0
9 2 1.5055684057805112 9.133413773782687 0.0 10.345956257560212 -1.8986355817013043 0.0
10 1 0.315978361098416 9.213426136059297 0.0 3.2226763549623945 -7.146204751154518 0.0
11 2 19.236556936899213 13.756627259932664 0.0 -2.3491564841570023 3.290608662005186 0.0
12 1 1.4300775313182255 7.16241559959587 0.0 -4.448085209837007 -11.153476745156798 0.0
13 2 13.752329785092032 15.24108195850018 0.0 11.313845900990431 -5.888897266244584 0.0
14 2 5.519537536468099 4.182799630705612 0.0 -0.26749369165829 -1.938519054609412 0.0
15 2 16.89153572140076 16.000890243562928 0.0 -1.7010477916690705 0.7209449956751456 0.0
16 1 10.164348113826657 16.791837570747752 0.0 0.931175285340727 -18.232627897501473 0.0
17 1 6.49752204767881 0.7318301038825715 0.0 -2.6322711868757476 -0.40577356621694466 0.0
18 2 1.4056491743711128 0.6412771499306327 0.0 0.9313574369783485 8.767157413218527 0.0
19 1 19.64713016534237 19.555487225115126 0.0 -2.211560989567252 8.56437819504975 0.0
20 1 2.933198139401789 3.0381507032656714 0.0 12.859679402877658 -4.247818923320449 0.0
21 1 2.7562254849845544 11.46168157681466 0.0 5.236108902690577 15.600714371542207 0.0
22 2 2.6621832524056717 12.44374559270128 0.0 -5.159873353350968 -0.27704797662599057 0.0
23 1 3.7752088096162626 9.518818677023141 0.0 10.538420737631963 9.899191106973888 0.0
24 1 7.043721866978599 17.482300454729522 0.0 -2.9776077584315797 2.178900010658462 0.0
25 1 16.487012756442702 18.189442002158717 0.0 -2.6832068985672395 13.344624499177412 0.0
26 1 15.326522930228087 3.6701800131893996 0.0 -11.172474481875168 -7.744938671905932 0.0
27 1 11.086311256785516 3.564052116980322 0.0 11.507282975852519 22.013025967363223 0.0
28 1 10.80697032571609 2.1015874704198345 0.0 11.698820636524108 -10.893750526389107 0.0
29 2 17.655196479003088 0.8747628665064682 0.0 1.2680006402311277 10.905758052344002 0.0
30 1 19.709188059400105 5.933782314536812 0.0 2.7685478661910006 -3.7521251234574207 0.0
31 1 10.83144490615786 6.062484005300814 0.0 10.867150976577365 8.237180347761019 0.0
32 2 13.672068956424111 1.927973627738503 0.0 -1.7118972182251386 14.367531709712791 0.0
33 1 0.9286358889921308 15.882571175548167 0.0 0.857552763929385 0.640156897895256 0.0
34 1 0.6208874011602479 15.322667127238907 0.0 -6.587492543647296 -8.605828932438515 0.0
35 1 2.954662663560863 10.503061797710467 0.0 9.515849263194905 7.557865874073647 0.0
36 2 13.234924130432825 6.3428891459566445 0.0 1.3859134561705884 -0.6647115293781415 0.0
37 1 17.960029721336568 14.719221977902416 0.0 14.708985829024497 17.61630837925415 0.0
38 2 8.806888243952205 12.712320176569103 0.0 -10.427991226108675 -2.687710987448873 0.0
39 2 7.019430505669753 1.6830515407024436 0.0 -2.5567447171502162 -2.632510200899259 0.0
40 1 19.729481963822508 7.401377124371551 0.0 3.2630927334951614 4.633436840966843 0.0
41 2 19.579664501791225 17.52856291892507 0.0 -6.526949356863411 -6.993098809000413 0.0
42 1 3.476250490641014 3.2960199781112145 0.0 4.57405147629328 0.9262049756581292 0.0
43 1 18.21363759378614 1.990609937610385 0.0 -8.400659898674354 16.64861631948573 0.0
44 2 3.5598812844518513 7.75255055219939 0.0 6.599630464777523 0.08804938239395067 0.0
45 1 5.777282591956562 18.625877688735347 0.0 5.970796907650928 0.7449654984417732 0.0
46 1 16.43931442407837 5.449744798907218 0.0 -15.40788372316606 -7.605342639349766 0.0
47 2 5.388097477853168 14.825627753543612 0.0 3.328261341172526 -6.876361839626445 0.0
48 2 5.481801726686638 0.5273011240578035 0.0 -9.123168665189812 -5.330812360685199 0.0
49 1 2.1173151561980967 4.440846142596918 0.0 -12.014950849450619 -18.309605050943503 0.0
50 2 16.118723701212616 2.0431055608569095 0.0 2.298442311694693 -13.938091930211257 0.0
51 1 18.538175978700544 0.9879128527410266 0.0 -3.516153654431413 11.03844109151775 0.0
52 2 6.421335806256045 6.893716802595113 0.0 4.735962560398146 -1.9909872120424599 0.0
53 2 14.944794075715974 16.096369246111284 0.0 -3.4837902720787106 -3.7249070040200127 0.0
54 1 2.6761272594587036 16.343636669605417 0.0 -5.2080941882187215 9.048202689704402 0.0
55 1 8.129261168869524 13.422977834487346 0.0 -16.49041344729372 10.70076611226991 0.0
56 1 2.3202221686530096 11.089627799915569 0.0 15.801469775145987 10.531609903955914 0.0
57 1 18.716573877864366 11.698446254731914 0.0 0.4082132365222649 -6.550980372877002 0.0
58 2 5.51375296955565 10.033944499197188 0.0 -8.101230839928498 9.991788104379598 0.0
59 2 7.283056934363334 15.514061805170156 0.0 11.108942066418937 -5.529124999411027 0.0
60 1 12.468577392062018 1.2019313978676234 0.0 -0.46668056721638906 -10.095812212979078 0.0
61 2 6.193553476148411 9.083858346777651 0.0 1.7330444408699672 -5.108299189496706 0.0
62 1 8.281640834323932 15.858941721573903 0.0 -2.3202064348454465 -20.212743482576588 0.0
63 1 7.825043558187159 1.2960268098972971 0.0 10.455056136574848 4.2613141355373045 0.0
64 2 7.038635387827953 16.330012573162623 0.0 -7.157343224260417 -1.254282753283912 0.0
65 1 14.566475797574654 13.144760341467263 0.0 3.018952625178656 7.41472466843712 0.0
66 2 13.221814487567537 9.088188870591098 0.0 -2.3649386564103185 -5.6657168292733395 0.0
67 1 9.366611863132402 14.890898907122384 0.0 1.443788874128905 -18.574935861969493 0.0
68 2 0.3517265270826013 14.25523510160477 0.0 4.743220906874351 3.041008093677853 0.0
69 2 5.695135711739894 5.421670500479274 0.0 -0.12518514850085571 0.8790628915906433 0.0
70 1 1.2097845833606273 4.952335308682379 0.0 -0.08148921670878048 -11.887775630774058 0.0
71 1 17.332329654350044 2.680195712938713 0.0 3.8937079826466343 -2.4238061934998236 0.0
72 1 1.8667476423117058 7.033621041583701 0.0 -9.676253021484449 -10.33286721215542 0.0
73 1 17.23953194599524 17.375632262856275 0.0 -2.023284817002385 -11.516636082762968 0.0
74 1 3.7149544537207007 4.445735294720798 0.0 -0.4668257003506807 4.0961805199700665 0.0
75 2 9.251744563997908 19.573163715761627 0.0 9.374852950825305 -1.2549631664383782 0.0
76 1 8.966806573207817 1.0600512292049764 0.0 6.8224312251610675 -11.674243273416012 0.0
77 1 0.7606848430355341 10.960608099077746 0.0 5.961783973294557 -11.931627389144142 0.0
78 2 1.9764539894931377 10.430956833242723 0.0 -0.7435976643178751 -5.880522930285262 0.0
79 1 18.970650257530608 5.590456186135436 0.0 -5.7000056783793305 0.7296184978437146 0.0
80 2 11.600936047462335 17.100370465788767 0.0 1.9399005426745113 4.032226686733994 0.0
81 1 17.29617625135348 15.263805069619481 0.0 -10.522107835954948 1.335434848560826 0.0
82 2 14.509838336079143 0.23506799387591878 0.0 -4.459829934920397 5.3555511207066155 0.0
83 1 0.0802872273349578 2.378961404021023 0.0 6.9461348339308975 -6.5085604389302825 0.0
84 2 8.285352493002975 16.837434719670547 0.0 0.4339358437508307 14.717646989909067 0.0
85 1 9.32950833631004 1.7286238687600766 0.0 7.732349698170001 7.975822398262053 0.0
86 1 17.761442888640513 2.61120447479503 0.0 -9.712368934860006 -14.671917860632531 0.0
87 1 1.4702189263692746 14.238528742864553 0.0 -3.2379584012068077 1.6356748957341607 0.0
88 2 5.544111449704735 13.916200563401535 0.0 3.9617171604159203 0.4626335497698644 0.0
89 1 16.97064060288662 4.264527632283705 0.0 20.389050992705958 -10.26159467325024 0.0
90 2 6.90916152341304 2.971517012343751 0.0 1.7072049422431903 2.7332589704172054 0.0
91 2 15.863659828054766 18.924237340695022 0.0 -6.337184949241661 -5.722587451089603 0.0
92 1 11.10234283824251 14.82659254504764 0.0 -3.775897252088416 8.236817816457153 0.0
93 1 8.463589495698088 1.3565962695042242 0.0 3.4879864641537703 0.22980851861877014 0.0
94 1 18.985114447684918 12.129062744117226 0.0 8.979639944635146 -4.284582539471306 0.0
95 2 8.179604025721313 10.585193375519388 0.0 -3.013104428131847 -0.47855839837025443 0.0
96 2 17.773223555987922 16.01424655309635 0.0 0.05670297762071102 -0.45394525867126106 0.0
97 1 11.748783265670715 8.737135272844498 0.0 8.245379994746623 -2.215017816681381 0.0
98 2 2.6225866529390713 15.236505768693394 0.0 -3.4524661224075452 -0.24885529512050408 0.0
99 1 10.49804133013942 0.687919953558466 0.0 -17.031162452386642 -0.3986947031157038 0.0
100 1 3.1838308154774513 10.914230901825164 0.0 -9.614815445649256 5.1867355274578975 0.0
101 1 18.77703517198391 4.460108981525868 0.0 -4.2036441226388295 -5.565734805091026 0.0
102 1 4.213021668279269 7.238423568056349 0.0 -0.8914722731450256 3.6253225517103065 0.0
103 1 13.454223058316867 13.666874922199451 0.0 1.6596928241188278 -3.113450170113725 0.0
104 2 8.16539146490609 9.133053477402653 0.0 2.9394607006628313 12.817704786618295 0.0
105 1 13.938006552174633 18.878800587065705 0.0 5.845854369263466 5.17620879047871 0.0
106 1 16.245877466475353 17.574989651911547 0.0 -7.228374707820183 1.5775146130339217 0.0
107 1 4.675731510564909 4.213692727673891 0.0 1.1315193189064 -0.7282218374179461 0.0
108 2 6.925369146265137 10.210594355165055 0.0 2.302961445449912 -4.564780362128517 0.0
109 1 0.5652460886128374 17.859811960434055 0.0 -4.980810509012217 11.693355997859005 0.0
110 2 6.152969938411045 16.268285272356973 0.0 -10.104990928525089 8.333993484644465 0.0
111 1 7.72098625805548 13.275149091058614 0.0 2.4269592965055717 -12.549799068645296 0.0
112 1 10.715642297848744 15.14539093204835 0.0 1.725524232052017 8.645048034904152 0.0
113 1 12.651614551776197 13.582995401296698 0.0 1.4415516653549767 -10.143656753940313 0.0
114 1 11.940892565185198 11.175006443294631 0.0 1.5293217854752412 0.6569833666902606 0.0
115 1 14.518396091973266 18.47378722654049 0.0 -9.11274977851083 10.236238328123292 0.0
116 2 9.916966220938379 4.335994858428117 0.0 -1.464688898375483 0.5251668707040685 0.0
117 2 12.481019410088143 17.57396602254707 0.0 -1.0798652496160381 5.882222938890392 0.0
118 1 10.233395167133747 14.649755032884936 0.0 23.238598416802034 2.3866973390158877 0.0
119 1 12.248566287885268 3.602244848035569 0.0 2.646761348211129 -2.6562531966864764 0.0
120 2 4.028721079837399 19.290720009739488 0.0 -4.667843665195677 9.412202975268926 0.0
121 2 0.40449549141769775 13.21700918534213 0.0 0.670004589742488 -2.067408325832881 0.0
122 1 7.246592183798833 13.399614429616065 0.0 -3.629026499232908 -1.904448657665229 0.0
123 2 10.01288465223518 7.027399622416468 0.0 -5.952762284411438 -0.7854045403961355 0.0
124 2 1.8037460807478636 6.006431084290546 0.0 -5.778781857784569 19.260685171961985 0.0
125 2 16.467319120302285 0.6550147104771881 0.0 -5.670341636505142 -3.5414896551278985 0.0
126 2 14.179663870133622 8.677541060006009 0.0 -12.65944553631522 0.0022223260250663853 0.0
127 2 10.7530690770059 11.954016649987746 0.0 -4.535059120327904 2.2238609352826164 0.0
128 2 15.477845013499108 9.627845521354056 0.0 -5.640725676291844 7.049053833127149 0.0
129 2 4.68865786039417 2.2791308184600494 0.0 -3.617067938586013 -3.5786590729608396 0.0
130 1 3.6718417228023785 16.314557122119368 0.0 1.916079699686111 1.762717462231665 0.0
131 1 15.574276684031195 5.488480248652662 0.0 1.6931392691644154 -10.90642681503403 0.0
132 1 19.57963544022414 0.7985683509115512 0.0 21.14861694527848 10.810259967328607 0.0
133 2 15.530177531426112 0.10263275775569733 0.0 -6.619438878626089 16.069817343349122 0.0
134 2 1.5049752612347287 11.176687746650185 0.0 -4.914551679057918 -6.767319804441012 0.0
135 2 2.8292265987104637 0.7996375691089975 0.0 -8.273921715586896 10.219716642199675 0.0
136 1 14.89829802119156 4.758759206531042 0.0 9.71922553994539 15.987188762787483 0.0
137 2 7.955919108230937 18.98581500078339 0.0 -2.489998411173134 2.7931140354183963 0.0
138 1 7.106773960265186 0.1221709735732597 0.0 -2.411476002704154 -4.286023051409236 0.0
139 1 9.262834997002823 10.39373343544345 0.0 13.741859966773472 -7.556646247965448 0.0
140 2 19.519951210270975 15.791355450766837 0.0 -6.010429123212282 -1.4336295181781913 0.0
141 2 15.49404357501988 13.006698057722707 0.0 10.223375182922378 -2.948186860351006 0.0
142 2 17.150190724852898 8.049002810407417 0.0 -1.2897423570909414 3.4748782286666056 0.0
143 1 3.6658745318484947 2.291367428169719 0.0 -1.894708934568986 6.235616981900256 0.0
144 1 6.393136988802846 19.72697028622055 0.0 2.6415455301092603 -11.97411283761595 0.0
145 1 1.440121090406046 14.685280550013829 0.0 4.80569457917649 1.0396145503234777 0.0
146 2 5.008891553984586 7.333196212187267 0.0 -1.649729415598088 -6.834118627805486 0.0
147 2 18.667116893131404 7.021042538122196 0.0 7.6462032276219 -1.5063167704089855 0.0
148 2 5.561359181110868 2.5103349204007572 0.0 -4.577481372580553 5.110078434037979 0.0
149 2 2.221313595998835 2.6541432193860013 0.0 7.464339830242794 -3.131372590341695 0.0
150 2 18.712052358255228 19.472911614339687 0.0 3.061613680801297 0.18268818680847765 0.0
151 2 5.105286704404416 16.891405396832923 0.0 -0.9516101299177401 -4.041561418033535 0.0
152 1 17.108356934214363 3.8432953399662395 0.0 6.806033819613176 8.929963016095535 0.0
153 2 7.802202741216657 2.6680137437829368 0.0 7.306793790339496 -1.7369768318823537 0.0
154 2 6.033753503618618 3.3937950818095266 0.0 0.8327109094448834 -7.882079468049471 0.0
155 1 11.515097248620926 7.587884769282953 0.0 -6.054891298112276 5.511286526404505 0.0
156 1 8.997775971892768 7.823355192127193 0.0 12.585979764330128 1.5342648291271865 0.0
157 2 2.304217149433767 8.573618804587085 0.0 -1.9633313119200702 -8.442549039399585 0.0
158 2 9.68037584281644 8.663199847051159 0.0 2.5354830985652597 -0.43674495438736216 0.0
159 1 11.19810439511485 1.874691292279106 0.0 -9.709697631090478 6.566263274943909 0.0
160 1 16.67070724073436 3.555943836317305 0.0 -12.161546879333505 11.932226978659452 0.0
161 2 4.909400002678051 1.3485233498329448 0.0 3.8697085538852773 2.7502608449055366 0.0
162 1 14.620720616753513 10.489895848784293 0.0 12.849635092452386 0.3282638131030176 0.0
163 2 17.686454537372576 19.676075026414107 0.0 6.073982734192011 -0.8714514890760876 0.0
164 1 10.919625500706953 1.5237443745916703 0.0 13.733843568337134 1.6313006647339092 0.0
165 2 3.693368219199951 14.972640197549369 0.0 0.4103154266447779 -5.247116700321577 0.0
166 1 4.613585781000567 18.710720818785287 0.0 1.6895349620112026 -17.96887362557099 0.0
167 2 9.022515891161266 9.313735286118183 0.0 -2.2912524228643534 -3.5025399251531613 0.0
168 1 14.601484990721103 19.14063622863823 0.0 -1.6648173050511168 -0.07666649621121079 0.0
169 1 14.704841038200694 2.4466654544926056 0.0 0.5399130512950299 1.406434009727306 0.0
170 1 10.189828466021138 17.3220753005686 0.0 6.170686695021617 -3.551983943519997 0.0
171 1 8.00773800287149 12.867931271858325 0.0 -7.524052981167564 -6.852429938001675 0.0
172 1 13.681013086572284 12.99457919948603 0.0 13.900816190153785 8.134875424999185 0.0
173 2 16.403408917675247 14.173601217575511 0.0 9.642578752184004 -2.976685151598309 0.0
174 1 14.193882119847954 11.686918446703698 0.0 -7.902838362999775 -22.616353410018792 0.0
175 2 17.895295260082985 12.117787114267498 0.0 0.25960680257132185 1.177384897656977 0.0
176 2 12.907142606276494 2.4995261328865785 0.0 -1.9130319902130606 3.579742084171981 0.0
177 1 18.33485665958093 7.957184874761925 0.0 -0.9117917835339615 -7.4666223220868035 0.0
178 1 10.908988199005398 19.364806861536817 0.0 7.484686019871314 -8.528661718215172 0.0
179 2 8.579282649135065 0.4222634930876809 0.0 0.5089505821925757 10.021939692326985 0.0
180 2 3.7332563116010493 12.584992712765734 0.0 -12.146683042433787 -2.690972764292528 0.0
181 1 3.6134325088813886 0.17733765218446326 0.0 -5.616144503163933 -9.50687731190662 0.0
182 2 6.193153831903224 4.764843758815596 0.0 5.582230851552141 -2.301078566964684 0.0
183 1 9.890686597297218 12.54955684134903 0.0 4.631250878967945 5.638857683270687 0.0
184 1 6.677990128170115 19.13333367706928 0.0 5.413045673384879 -5.150095870081477 0.0
185 1 0.4299101605548308 5.9191390915412665 0.0 10.720556595503414 2.366324377058137 0.0
186 1 1.666922441736469 4.287700462030276 0.0 7.663343221170551 -9.381430569609853 0.0
187 1 13.36406101331869 7.430543413086827 0.0 17.38778648072142 10.155956165430473 0.0
188 1 1.9921658289992397 16.530272480578127 0.0 14.067875889147217 -8.37265996255805 0.0
189 2 17.44770512745431 11.124104805612228 0.0 -9.128223987101885 0.06218368651536113 0.0
190 1 11.960284847544882 1.450229375973084 0.0 2.053592988374252 -0.8864887481048732 0.0
191 2 3.772391324071077 1.1669540577028032 0.0 2.7180726871831404 12.56398273854861 0.0
192 2 9.440582149052638 5.323048343065705 0.0 -6.049297653466303 -8.68086845958743 0.0
193 1 1.8926319174596795 15.853439561244421 0.0 1.8221272320938942 -0.44378882611908776 0.0
194 1 6.833379002716698 12.703976255041693 0.0 -3.137395069825522 -3.2969584350561734 0.0
195 2 15.57514288007184 6.416293320859749 0.0 0.37045970889549235 -4.285952494157833 0.0
196 1 11.662940990886337 13.306818727606052 0.0 -3.148484112929695 -4.285259014614998 0.0
197 1 17.310766170199553 7.1117727124061565 0.0 2.082137198905523 4.585303528426551 0.0
198 2 1.727309934562073 18.046358728641284 0.0 2.3567533475652755 -2.2917011507897165 0.0
199 2 19.452787654746015 18.698074334646382 0.0 -6.796151360309393 -1.6357326165643356 0.0
200 1 16.128642087554514 8.616697817018109 0.0 2.206782349012907 5.364629886496812 0.0
201 2 12.715613953476874 7.925220765008999 0.0 -6.1166062943581645 -10.595880330194113 0.0
202 2 19.035679270787018 16.749061181490184 0.0 -5.016906596524204 -4.105078352447418 0.0
203 2 16.259491660091296 12.312208322480378 0.0 -2.065197529791535 -0.3638949145567967 0.0
204 1 16.754201291415306 2.6166395160572367 0.0 -1.0895767249488821 0.4765405874723577 0.0
205 2 2.2244585968545527 19.399268132475505 0.0 -3.232462066476181 -4.26627526458512 0.0
206 1 1.597963069369832 2.0104142881944256 0.0 4.8524422527170294 14.325079141260183 0.0
207 1 8.376026576717475 13.891810789010652 0.0 4.5938911733319925 7.878847404158893 0.0
208 2 8.44543484820657 3.3377343709640925 0.0 -17.89922751306561 5.904551851025888 0.0
209 1 3.583055653846291 16.952507464961155 0.0 2.434524661152466 16.057802613923773 0.0
210 1 11.20794376210678 13.526280064532537 0.0 2.0243628349304683 3.0546650768949424 0.0
211 1 19.25146216905952 7.701345109035851 0.0 -10.71508523792618 9.930489822184299 0.0
212 1 0.801434662862659 2.3385277746451147 0.0 -6.749520331374247 -0.9882347697673405 0.0
213 2 10.377497659899143 10.473260086891328 0.0 -3.0563383741761148 -10.865918693475578 0.0
214 1 2.889534554678566 5.080099459802112 0.0 2.7948872177802073 3.029817196247251 0.0
215 1 0.9765689311811329 10.426230180361731 0.0 -0.18752329792735198 -1.2926120352225277 0.0
216 1 17.681672908251226 13.515186735373785 0.0 9.988418977172968 -0.26002782050882434 0.0
217 1 1.238965373866037 8.129021724584796 0.0 -3.875374625178589 3.4408605419041747 0.0
218 1 4.376145581375884 8.687859046557364 0.0 9.353080442420532 -19.28637114325222 0.0
219 1 8.082587306476322 7.66763305172273 0.0 -6.556799494093793 0.6471859928060438 0.0
220 1 3.522617042852401 5.556840807339021 0.0 3.5301340852187146 -9.016855118516455 0.0
221 2 17.04301232667965 12.948117617505739 0.0 1.878596928948669 0.7951922660370174 0.0
222 2 0.6727850980693231 4.082142118943478 0.0 -14.659955944179382 -6.021745842456756 0.0
223 1 11.120362856308974 12.906290276628114 0.0 -2.889679492074237 7.997234637179984 0.0
224 1 16.30545294873142 15.070836157120599 0.0 5.720030799542827 -23.870100819527526 0.0
225 1 19.712346080237438 11.973885495920994 0.0 1.546538830025402 20.23856374095866 0.0
226 1 6.328863523870611 11.952209002228392 0.0 1.1048696160885008 -15.512915254759797 0.0
227 1 12.672218096007438 18.934447978405615 0.0 -8.691395876678635 -3.734089308649723 0.0
228 1 15.503024866691025 14.970046476042087 0.0 4.3536264575247845 4.051373990735118 0.0
229 2 11.256451086469045 9.448807947336096 0.0 -3.7554498771953124 -0.8724375402731505 0.0
230 1 8.897717502376203 2.3112934852584983 0.0 3.8322201131666946 -2.1375083052015684 0.0
231 1 4.573727906538419 6.375879053488564 0.0 -1.0329609975407623 8.34100580197132 0.0
232 2 17.317516461021814 5.063852768322901 0.0 -4.349973902473214 17.324019392968133 0.0
233 2 2.0915754283742496 13.35146907696925 0.0 2.8273918794736876 -0.8389582571117914 0.0
234 1 13.941900865418072 19.33980258086486 0.0 2.4984633295620813 -2.8721382773090247 0.0
235 1 7.746592112204944 8.252271048999159 0.0 -12.595941112585896 -22.325010111116857 0.0
236 1 8.358179556199472 11.73690573062585 0.0 -4.713823481233644 -6.637184766857157 0.0
237 2 10.406028525665104 16.02814236876312 0.0 -0.22059959817097494 -6.752958933920183 0.0
238 2 9.222507371483532 17.715378217393837 0.0 -3.444850450830936 0.0656491993789312 0.0
239 1 8.858515637268983 4.106123957196412 0.0 3.385482286441808 -18.363306536410665 0.0
240 1 11.360528368785609 2.648106867539433 0.0 15.797545680801973 8.227923072235269 0.0
241 1 13.308233719894277 3.1689098568706897 0.0 -22.47839507311096 -1.371653498895845 0.0
242 2 14.624788439356221 5.498570913721253 0.0 8.816182461966209 -7.593712760614874 0.0
243 1 0.2586416225008435 1.0255597958297908 0.0 -8.861656395869762 2.95588297032665 0.0
244 2 18.587114416766383 9.846398850765375 0.0 2.0644828115958753 -0.8066786759455097 0.0
245 2 2.5991540761469487 9.557777531729432 0.0 -1.8726650544470682 -7.446282058555046 0.0
246 2 11.135497663368605 11.002259923898794 0.0 -3.610361158735407 1.4006512654074477 0.0
247 1 13.959167565747327 6.971318009926998 0.0 1.2417186159603495 2.928232608500615 0.0
248 2 10.004106295955648 18.504467924980162 0.0 1.4577391145979468 9.584068270103602 0.0
249 2 11.753974399562663 5.164580718024997 0.0 5.285182601187466 -3.9695952927844504 0.0
250 2 14.91771973342473 7.2941683561008235 0.0 1.3607748447547834 0.3145028065823117 0.0
251 1 4.629132203844506 11.432052741305133 0.0 -11.361700089287014 -2.7010042165217363 0.0
252 2 12.771554503342674 10.688954364244886 0.0 0.1669979550258843 -7.383035445880822 0.0
253 1 15.9924714941032 16.163056259123596 0.0 -2.4202784528816244 -6.171845246252929 0.0
254 1 15.954066301907178 4.47863031641038 0.0 -4.500152449364027 20.204955233140733 0.0
255 1 15.995016120490964 5.03219747773319 0.0 -11.80169347571693 11.730238996550154 0.0
256 2 8.989851066862647 18.732444407443854 0.0 8.43144821455267 -10.531123123734549 0.0
257 1 12.267286373311975 9.787072202227133 0.0 9.246688724975886 -7.724597247085126 0.0
258 2 5.976358416790579 17.10577399882281 0.0 0.009804741555080878 6.3176636863915325 0.0
259 2 16.25409875272423 11.051102758035864 0.0 -0.22155481206660183 -5.656030915386027 0.0
260 2 7.480839664488508 11.450071404370128 0.0 -7.491996526374699 2.2835478795161572 0.0
261 2 13.465982586969247 16.16821579928613 0.0 3.1464323952738793 -10.806197503028956 0.0
262 1 1.6324551075411413 12.217847836651291 0.0 -11.179442289411083 -2.235649096974286 0.0
263 2 17.192002390940207 1.7708590082716036 0.0 -0.4830189942960185 -6.743240538299064 0.0
264 2 7.9460192576488335 4.210902273822337 0.0 -2.392066895682965 -4.425225959430051 0.0
265 1 15.81606754315579 8.151162281715669 0.0 -12.218410433995771 1.6959970293638922 0.0
266 2 17.090710545212044 8.890459407250695 0.0 -5.5785578929222055 1.4050756239588529 0.0
267 2 4.463807533080664 14.220583269653451 0.0 -4.079706778008739 4.994166070178368 0.0
268 1 2.431653655036787 6.937793387263271 0.0 -2.8947047684088885 -2.7368182173128153 0.0
269 2 13.408881145255075 4.067783155944792 0.0 0.14784308488098985 2.615620341927521 0.0
270 2 1.8838067163146435 3.4236432232067613 0.0 -0.5702391544008862 -7.151134857797322 0.0
271 2 18.98634023052721 14.914015021194336 0.0 1.1356079420148584 -3.9377387891579514 0.0
272 1 12.361755209496078 9.191425967180942 0.0 -4.89578715020585 4.710284550845614 0.0
273 2 19.751376840863855 8.40432916231081 0.0 7.329047980796539 -3.6528587237538357 0.0
274 2 0.757924618839681 12.397541077651182 0.0 -6.720927981425758 -0.4084185747102822 0.0
275 1 3.05822747149691 5.701513659757676 0.0 8.854570754761705 -17.38371909580395 0.0
276 1 12.128557193168374 4.383787499523572 0.0 -5.266688308435808 -1.9066651873661604 0.0
277 1 18.364955501967003 5.309835784721951 0.0 6.678145739909678 -8.106227810752669 0.0
278 2 6.6153979301796015 18.301708942583133 0.0 5.354362885366625 -1.4311507438237683 0.0
279 1 4.565251670253957 10.649982397555165 0.0 16.174808381447146 13.61370034068447 0.0
280 2 7.559268347368841 14.740589224853952 0.0 -6.451215197783441 -3.5348875495173595 0.0
281 2 12.464201099955291 6.0141278816664565 0.0 1.6791869340406542 0.17990307909169165 0.0
282 1 18.24910062205488 4.745123799838594 0.0 -15.2578955649418 0.3422646176375522 0.0
283 2 13.883560327934237 1.149419960865175 0.0 0.2547933976939565 6.130180284870644 0.0
284 2 18.453506015016504 3.7938593185296345 0.0 -2.686821353865422 1.5450760055926454 0.0
285 2 12.8953636696699 4.904158712584776 0.0 -3.4731477214517796 0.3206990557521935 0.0
286 2 10.90554105726884 4.578817199305689 0.0 -1.8948134166618655 -1.2364297969217126 0.0
287 1 1.4538253385599773 16.73915145627197 0.0 20.79664209054185 -0.060503778930835396 0.0
288 1 13.194330793832929 18.951057826156912 0.0 2.827469844215535 7.558323679001024 0.0
289 1 13.256001904064725 12.63352100457418 0.0 7.5136430708776025 -2.8932336617654606 0.0
290 1 8.855577021717295 8.381177397951538 0.0 6.0140516336848595 1.2072806799360745 0.0
291 1 9.886155944416032 1.3763432596573069 0.0 20.21666282716609 -2.871403353488566 0.0
292 2 17.981639110701302 17.270886323517857 0.0 -4.493497732884739 3.6295438502649358 0.0
293 1 0.4486547478103722 7.411348137839677 0.0 -3.253850399452995 -0.6937037269427729 0.0
294 1 2.589664632436583 17.572696219515482 0.0 14.599041176761327 -5.4353610767208425 0.0
295 1 11.170901218157649 0.3395874706939612 0.0 -13.76200193670186 9.72285829461365 0.0
296 1 18.365079430057502 6.257693507774365 0.0 -1.9688912166918373 -10.254338028902989 0.0
297 1 7.262701742892354 0.6496334616013648 0.0 2.5334963460136524 -4.6447293380150585 0.0
298 1 10.505147929986512 19.723875592455286 0.0 8.065400655191825 15.268692602002446 0.0
299 2 8.130205107730136 5.0350590016430665 0.0 -6.674753074727656 -0.570884031574546 0.0
300 2 13.059830252929073 0.12437427370148431 0.0 0.5626365074062242 -2.679453098814186 0.0
301 2 7.557084421955681 6.643714670292298 0.0 12.16673464524704 -4.470078825100469 0.0
302 2 5.518418674440039 12.495887284864601 0.0 7.458940578493125 -2.8967436934709854 0.0
303 2 3.3246422846099506 8.721614731298443 0.0 0.055279202818937896 -8.875913119245531 0.0
304 2 15.591311935130989 16.832184708562178 0.0 7.982362022938082 -2.3441085698993462 0.0
305 2 9.766581249999405 14.049376001260859 0.0 -2.3693661193044506 -1.7701161156459413 0.0
306 2 13.030127143726347 14.516211959969402 0.0 -5.864038928399882 3.873343417722025 0.0
307 2 4.379839873323713 13.298929345218399 0.0 -5.053436753187956 2.8423317460765607 0.0
308 1 7.850789488214991 17.52962061753221 0.0 8.332812749258501 -15.784599139306387 0.0
309 2 14.260535455540692 16.944192202159066 0.0 -8.867547005393147 8.820446819176755 0.0
310 1 17.92257832372099 8.548808253704992 0.0 13.888172610386405 6.928564759817079 0.0
311 2 16.615159762853 10.167533391878381 0.0 5.930968860168747 2.327821390090674 0.0
312 1 14.486308835248916 3.519732145192815 0.0 16.34877655204828 -11.209388023412378 0.0
313 1 5.886050338957116 7.541065834394213 0.0 14.842873446797165 -2.744604323118523 0.0
314 2 5.271978447125332 9.205149737669776 0.0 7.603865029484315 4.831488753098874 0.0
315 2 12.45521864005631 12.83628391999455 0.0 -4.324773052092177 -1.1210348261554508 0.0
316 1 10.507714349400738 13.199589500704858 0.0 -4.838002716554966 1.3974797783217956 0.0
317 2 13.62036842827691 17.468398162792997 0.0 3.4369978802779864 1.7542840016643255 0.0
318 2 11.947752728129398 0.5011415512847055 0.0 6.455608635208704 8.997687470489785 0.0
319 1 1.2074222350227228 17.32155481583589 0.0 -5.230048087693964 -0.8804990772422865 0.0
320 2 8.738533326092686 6.0991401383996955 0.0 -1.3219179571294706 11.655449793538907 0.0
321 1 3.062635026578031 16.760739426915006 0.0 0.957759968885665 -7.479099268311615 0.0
322 1 0.5835092895684909 3.1879932902326353 0.0 -3.336493632226391 -2.6671929505714855 0.0
323 1 5.789205615424663 11.371165970934348 0.0 -0.1749359520678831 -1.9151538674021702 0.0
324 2 19.255642418746774 2.992209136510314 0.0 -5.012974370248576 0.10402712006110312 0.0
325 1 0.8335457586003012 14.86616386572692 0.0 -12.038348386100616 -6.693086791522145 0.0
326 1 1.2031600231752113 15.45300063188555 0.0 -4.823869239556468 8.767430833335851 0.0
327 2 11.342232417242588 18.473090650333525 0.0 -4.361053912079315 6.172209642343161 0.0
328 1 17.788510931793375 6.178309959826671 0.0 0.021286658509805597 6.916414751533337 0.0
329 1 15.750555572867999 18.162657537638584 0.0 -16.803960666464654 13.695213133533539 0.0
330 2 6.496524712314856 11.129268494967604 0.0 -2.0100308823560327 -0.2370469180561171 0.0
331 2 9.556793044989872 16.052990234738118 0.0 3.11298282702642 0.7617923385757235 0.0
332 2 6.880623781812477 5.452593967978315 0.0 -5.771772855443459 -8.160877172114327 0.0
333 1 8.830813354724768 4.5424623239560376 0.0 -3.8966997539544694 4.326880606867997 0.0
334 1 9.435548042999347 2.7932877595323267 0.0 8.031300529349641 8.914601075704658 0.0
335 1 17.15158395576695 6.280771539950585 0.0 -9.458644279609182 14.142351581928386 0.0
336 1 4.99865623497448 11.012154680791385 0.0 20.744319346987112 -1.8511793624607087 0.0