ITEM: TIMESTEP
0
ITEM: NUMBER OF ATOMS
400
ITEM: BOX BOUNDS xy xz yz pp pp pp
0.0 19.7609 0.0
0.0 19.7609 0.0
0.0 10.0 0.0
ITEM: ATOMS id type x y z vx vy vz
1 1 3.5868046857361153 9.617644279858382 0.0 -4.394691085955941 9.64054574841469 0.0
2 2 0.6350745173589135 7.719885067027863 0.0 8.037007022778976 1.3546600561870021 0.0
3 1 17.986050500539385 6.353354470397593 0.0 -19.54862056126726 15.514214828970776 0.0
4 1 8.322745355897496 7.27094965859524 0.0 4.826579106183997 9.76102629878977 0.0
5 1 11.204550741379341 17.625964091810033 0.0 -15.51211645333948 -8.379457932067153 0.0
6 2 10.608493339773018 1.1506645688295454 0.0 9.816595949830457 -9.817761619665038 0.0
7 2 7.62554133701144 1.4980203897524036 0.0 6.5300576521795675 4.302894920624221 0.0
8 1 18.815282751041938 11.200306801737966 0.0 5.301291527760581 -0.21056434670921945 0.0
9 2 7.865262122832086 12.062895021612345 0.0 4.757563021951418 4.566686711383434 0.0
10 1 4.859068844283012 8.435391571166974 0.0 -12.71533500085379 2.76271436297412 0.0
11 2 4.46686907070625 5.428194287403985 0.0 -0.6954661322301369 8.273669841310356 0.0
12 1 10.889953047978558 18.384460468289166 0.0 1.4189095872856998 -13.082806710568944 0.0
13 2 8.740492344863425 15.49069134628297 0.0 -4.850270723980299 2.748761213090158 0.0
14 2 6.065821581564749 10.360967497791911 0.0 0.9761252913015972 -4.90453798309403 0.0
15 2 7.205100674772316 0.7290540290853298 0.0 13.611630276327787 -4.133106337378771 0.0
16 1 17.840640672881968 1.8530821962244197 0.0 12.274587965095405 -7.128929680263483 0.0
17 1 10.36818396316308 18.205100783026083 0.0 -15.720728074164649 -0.43501716399383555 0.0
18 2 5.63611243816776 1.5224665598649705 0.0 -2.941936448684068 -8.583381602970656 0.0
19 1 8.686530022018923 7.763106293920999 0.0 4.809806671154578 0.6636144238060804 0.0
20 1 14.285028581606609 19.06733703291172 0.0 -6.216090080525675 -12.859677428271597 0.0
21 1 18.80855593961472 16.77275350047452 0.0 2.4461834547994643 6.109080552245504 0.0
22 2 7.284209952653526 12.529323292729122 0.0 7.489722098810642 9.717446274246468 0.0
23 1 1.3091718638449976 3.2484938164914565 0.0 2.784305565969798 -6.456308948079783 0.0
24 1 11.74647376912305 9.248762423506388 0.0 -3.015561627696442 6.273476113874508 0.0
25 1 18.287889042919726 4.115257664941802 0.0 2.7314463653772187 -0.4556774306561516 0.0
26 1 11.104968742693549 5.334271992882069 0.0 -7.743268159906484 15.57727381130255 0.0
27 1 1.6957250921309932 18.36667171744486 0.0 -5.529321562445021 -4.703996420004101 0.0
28 1 10.490611428244677 11.571119425942578 0.0 -3.1106808880019026 1.9915401624030875 0.0
29 2 1.6868996122958015 8.842890972282268 0.0 4.2064531907053535 -6.749050614246064 0.0
30 1 12.976312392808781 7.161713456708702 0.0 -4.998041584591001 -6.894497356378235 0.0
31 1 13.779164412659744 11.958336527409214 0.0 5.340807776682549 -6.188047115638906 0.0
32 2 4.543222847596384 2.60202563077797 0.0 -4.048441463669661 3.330146866153613 0.0
33 1 18.832884092041546 10.174493505090581 0.0 -14.940382841358712 -7.038086835568858 0.0
34 1 19.56209824463721 16.379186335248562 0.0 0.9059592599851354 13.114649106079874 0.0
35 1 12.551740732646213 0.9181676825498284 0.0 9.072423195937366 5.951172892738662 0.0
36 2 17.125385357390268 8.760784889192164 0.0 -6.360793792086927 4.052834492694781 0.0
37 1 5.098068926531584 0.5835076900101163 0.0 5.3940168052402795 7.167027736864307 0.0
38 2 14.249762285597786 9.196522347777409 0.0 -6.167151353188003 9.144185899072612 0.0
39 2 4.441005531915073 17.987252320367944 0.0 1.9253993576189266 -1.4972499414784262 0.0
40 1 9.008342156561987 17.69960707561996 0.0 -14.094377096909476 7.036043647133095 0.0
41 2 12.593096176608325 14.971523761513826 0.0 -1.00912420061925 2.8153362006618536 0.0
42 1 16.879671281063985 5.49069250243293 0.0 21.237688966861953 -5.9530666556973575 0.0
43 1 13.951149743965061 4.636246278375288 0.0 -1.586938986100917 -10.30297832526755 0.0
44 2 14.080380156536046 10.10770397745295 0.0 -1.166275409621555 -14.911539355282702 0.0
45 1 4.462800644612846 10.199437737567912 0.0 9.062619539033388 1.4448097919072298 0.0
46 1 4.303292866432607 15.970398416185768 0.0 5.488474695996278 -2.7430319865646915 0.0
47 2 10.009356872312898 3.5101538138883366 0.0 1.8531969522538296 13.374706072379738 0.0
48 2 7.195930307681499 14.953683476471394 0.0 -13.573916766307606 1.9222927777735777 0.0
49 1 9.734917783545137 10.926566281845018 0.0 9.682648735837278 2.0074158600252865 0.0
50 2 6.715292221374507 19.438991907687026 0.0 -11.024278092902543 -0.34800263628988165 0.0
51 1 18.912346921235795 13.184328403616124 0.0 -1.2130131017975112 -14.691499677508808 0.0
52 2 16.168610886368043 10.064492237045302 0.0 1.7382053891903262 -16.48453319283733 0.0
53 2 17.73085843818505 8.100753784496266 0.0 4.690059265739363 -10.635108253289701 0.0
54 1 6.087449306179546 13.914453908497075 0.0 5.639045790088101 3.9008485772978956 0.0
55 1 10.35993469277419 17.6930552346062 0.0 -6.316829533972276 4.898620897674186 0.0
56 1 17.222922430952448 15.975971717081649 0.0 6.657966115631593 0.9491068268307669 0.0
57 1 3.015833947197768 7.640502479947416 0.0 -6.901894977282374 0.0525467678114051 0.0
58 2 8.14437409495202 13.41524162868301 0.0 1.135005161012461 -2.5624664638956816 0.0
59 2 2.8605315074008355 16.537201101092922 0.0 -2.693555562399664 1.707499982972006 0.0
60 1 8.112870641734698 4.506588423988585 0.0 -4.346632737458798 -8.582951027830513 0.0
61 2 13.447508440365867 18.835971620150133 0.0 6.602940443503906 7.45017749962728 0.0
62 1 12.093357015083804 10.548012600682997 0.0 6.7634817889462155 -2.1470093758814284 0.0
63 1 5.870676342599353 19.714255962243513 0.0 13.771352369549005 5.101902912407278 0.0
64 2 0.9414399671240647 13.532979417597009 0.0 1.789178710286872 6.896918018332118 0.0
65 1 6.598698897122044 10.978128446573866 0.0 -3.9481063209410854 -8.647556623606611 0.0
66 2 6.688408905353718 2.404815797148415 0.0 -3.8885053832131566 -2.1701628181230026 0.0
67 1 19.581312686768385 8.15671172498416 0.0 -15.582903023984942 -4.373579264758898 0.0
68 2 8.964249274675439 14.318491287735874 0.0 8.400825553989058 -2.2443458319713185 0.0
69 2 7.797348378924044 3.0021747694997907 0.0 -4.945780354377781 12.751727789734902 0.0
70 1 1.1574360092715816 11.660970706858492 0.0 13.618797293789132 11.969069981450478 0.0
71 1 8.643479008723062 4.2326695951363424 0.0 -6.397155014294702 3.4232630404713866 0.0
72 1 14.636378868680866 11.593650742066758 0.0 4.2978092646126544 2.121116317768038 0.0
73 1 11.044794160336242 9.428761166615875 0.0 -8.08146501977516 2.926059134195471 0.0
74 1 14.072930255024275 6.38424388324388 0.0 9.711609897845552 1.7639175542407715 0.0
75 2 3.440514273938959 11.675928999190917 0.0 -4.248703394202598 8.033776611061265 0.0
76 1 17.97450168043748 16.706331291101566 0.0 -11.225597697014294 9.436835413230693 0.0
77 1 15.345604134598123 16.59389047733651 0.0 -6.03082414800742 -1.4138260890725574 0.0
78 2 3.7941559194656556 16.749730284952854 0.0 9.67436990453217 -6.3348760434251545 0.0
79 1 15.832986399944556 2.176460396283325 0.0 -4.95792087677846 8.992431342735006 0.0
80 2 14.99492203807591 14.196440022407472 0.0 -1.09198114982959 -7.817924639219682 0.0
81 1 14.999818533189165 2.8530937174399127 0.0 5.899285199672394 -0.7700206488713535 0.0
82 2 9.609067553835441 11.789016095500772 0.0 9.647872756039805 0.38450288644229763 0.0
83 1 15.649059191687973 11.409469257008938 0.0 6.885259372172219 1.7456125337919404 0.0
84 2 15.891737469330128 9.247851209089198 0.0 7.190192009919034 9.676761495449831 0.0
85 1 5.057940194851892 5.945801046238073 0.0 3.003830699687686 -2.8073759915681484 0.0
86 1 16.388184595315582 17.33004200980844 0.0 7.156990210771868 5.902491862585113 0.0
87 1 11.626409800744787 11.799612147728428 0.0 7.25737905467647 -11.148493293690004 0.0
88 2 17.89816303603706 9.726295756995123 0.0 -8.774594088231103 1.3162470312020274 0.0
89 1 10.263976957275297 4.2374918610931624 0.0 -6.5337007272604755 -2.4653790074320483 0.0
90 2 3.3774700324547537 17.46627901745656 0.0 4.3775874204467655 5.68850433195071 0.0
91 2 6.274173511361201 5.749664821343009 0.0 7.439478531880658 -3.7689408278265555 0.0
92 1 2.881486339170539 13.707511305760711 0.0 19.439924790565705 -11.003535256373919 0.0
93 1 10.921402178026563 4.139874500408128 0.0 4.4170596970652145 0.38185096762461873 0.0
94 1 2.1687357163613044 1.3284524024565498 0.0 -1.2102867730389304 -4.3377158087353855 0.0
95 2 11.842535209395756 5.593881944542402 0.0 0.39955445789821503 -0.39863032788872294 0.0
96 2 6.001159936751933 6.604684644109949 0.0 -1.7291159783308103 0.4108868753332293 0.0
97 1 2.461790408174233 3.8269076340047 0.0 -8.619249663865949 -15.303475444108033 0.0
98 2 2.218465173950758 5.841918576421362 0.0 -5.2877447738282415 3.4348920465661914 0.0
99 1 6.950419150578971 17.93459117729844 0.0 4.093380382251854 -7.7885507253853214 0.0
100 1 8.434811879371829 9.230211941576727 0.0 -0.08899812666108949 4.384752374329948 0.0
101 1 18.14210168447976 11.764065645081645 0.0 4.622394382319379 8.885101825462664 0.0
102 1 9.07396538478502 2.456119856645109 0.0 1.4079333491098251 -0.25334903967635003 0.0
103 1 4.532963578489073 13.235045106108096 0.0 -4.94974145991174 -7.139730164994838 0.0
104 2 14.291302949475034 16.673198893390786 0.0 -12.919283835519124 -1.038176324640162 0.0
105 1 5.684929235523767 19.042448345987225 0.0 -20.737845527818006 -1.087458737301721 0.0
106 1 19.222315974921965 15.52755010116007 0.0 -4.229996687970796 2.957024541084996 0.0
107 1 4.450078318188597 13.74929083260516 0.0 5.6098908467865485 -4.062187142782395 0.0
108 2 4.876045976025224 12.231955316490161 0.0 3.9874937322773722 -1.7108172722292818 0.0
109 1 16.95549536618773 19.598536986703156 0.0 -8.947872076457067 10.670950985038491 0.0
110 2 16.58210117393593 1.7986386562315546 0.0 -4.202469556539076 1.5451810901135783 0.0
111 1 2.3297908635908127 12.023992802508097 0.0 2.8434492570648855 -6.168867877741548 0.0
112 1 7.016137170622236 6.956515770792877 0.0 8.794339508209553 -0.7985250123018315 0.0
113 1 7.111400654377276 13.600718031105067 0.0 -0.3066170269681871 7.044543908783739 0.0
114 1 9.347154538840265 7.582008895569933 0.0 -16.003682473354026 1.3836748030027402 0.0
115 1 10.693332986068006 18.901835080527892 0.0 8.575022467175618 -5.326950490855163 0.0
116 2 11.765130215400061 12.770719641652057 0.0 0.41576253934808816 -3.7699292358990957 0.0
117 2 10.571025843887035 7.279559753747549 0.0 -8.077582804908696 -0.1639450455548406 0.0
118 1 9.311754636556211 8.579418308632762 0.0 -8.397468031459272 6.590924870462348 0.0
119 1 0.9150482010266607 15.536338040506704 0.0 2.0012855249003896 0.3637989615878623 0.0
120 2 15.153652786950284 9.990102235197394 0.0 -0.23015186126014597 4.283482529008317 0.0
121 2 18.600561238990085 17.650737511132412 0.0 1.9705574857439208 -3.369118922691723 0.0
122 1 8.200181161699197 5.250554059503431 0.0 8.506643278694865 10.625684698643731 0.0
123 2 4.576310011638199 3.6672114603664396 0.0 -4.893218688231777 -4.621206472097444 0.0
124 2 12.133994293038484 19.32225156349832 0.0 -7.8702681575201385 -5.545344390778169 0.0
125 2 5.989060655798132 8.847662417841216 0.0 0.3385220043972521 0.3865330791707386 0.0
126 2 0.5605459815726734 6.429584496658967 0.0 -0.5299970876427388 1.3406138826413747 0.0
127 2 1.6528496021592265 16.152528636856232 0.0 -2.461879222161635 3.454799565655569 0.0
128 2 9.475441366001547 6.743571472965588 0.0 4.004102524733131 1.5379138285742204 0.0
129 2 5.762690806750196 12.797538704833572 0.0 8.09717273956103 7.390805817562928 0.0
130 1 7.022206328303468 11.674327887972202 0.0 13.707874223498605 -5.064705540133681 0.0
131 1 6.382450407077988 3.212201523383425 0.0 -5.45631591501898 -8.628353715989492 0.0
132 1 0.3531544687479339 0.3342610320851432 0.0 9.570663987512281 -14.246067435219128 0.0
133 2 9.258482424026207 5.527497496294839 0.0 -2.498065695210619 -4.2336183040148825 0.0
134 2 0.17500354722129122 11.99118597668107 0.0 -0.26938897069361023 -6.662001707660727 0.0
135 2 13.682889629399057 5.708300721557279 0.0 2.898657994376866 -3.084818010826234 0.0
136 1 3.8252602101155544 8.189591927301906 0.0 16.287775326435106 2.7377569374832946 0.0
137 2 6.8762673471346325 4.857386273114834 0.0 0.5423602316381819 3.9909896862435796 0.0
138 1 8.12806023326847 7.783874839477856 0.0 7.461780427152229 7.324368545741024 0.0
139 1 16.144281158407487 15.329874069961974 0.0 -12.03776442797504 -3.115471341669901 0.0
140 2 10.056189859211317 12.937526663924494 0.0 1.8107039077570661 7.2071024848843805 0.0
141 2 0.06516546463479406 3.052557770012386 0.0 7.006721136631018 11.607789779128723 0.0
142 2 18.89253919722505 14.9418180300189 0.0 9.764628678741781 -16.28897405611621 0.0
143 1 13.754176969452383 17.25491530085998 0.0 2.7046141280257783 -1.9881175850706607 0.0
144 1 15.488360828926776 17.249811445176093 0.0 5.160015981197891 3.856265670626185 0.0
145 1 11.594262005110743 18.51622148911801 0.0 -5.0795462805591 2.036220631550983 0.0
146 2 1.1123596338718218 14.466031731127474 0.0 1.023533394191148 -5.9619954326192595 0.0
147 2 11.327805231612052 13.576542896463087 0.0 2.777846955967019 5.617595589808882 0.0
148 2 8.903769658156225 12.242063891835098 0.0 2.202066988415256 2.344019374012723 0.0
149 2 3.524280840927876 18.443935895977205 0.0 -1.9828861641406228 2.909725203107645 0.0
150 2 11.118346785627901 14.501149998423697 0.0 8.540203043663915 3.141488935890091 0.0
151 2 3.4825760579031093 7.058477302166941 0.0 -3.2362930187849246 21.828395956748075 0.0
152 1 10.731797678737802 16.6641454768954 0.0 0.4773146727836231 -11.370614271461331 0.0
153 2 7.327355721414461 5.992094729197126 0.0 -2.110955614121026 -1.0143826766939454 0.0
154 2 0.7060472716107302 1.7438638505225728 0.0 -2.6982022249009407 3.5472088916486215 0.0
155 1 15.40327381963477 19.617259462604693 0.0 4.028166336389829 0.3384876690909905 0.0
156 1 12.881343373169221 13.292056075491368 0.0 0.9597295702104649 11.15869684781822 0.0
157 2 4.957655112369671 4.4916259428404235 0.0 -9.808611035806996 -6.770237935839197 0.0
158 2 13.441802666154134 12.657051937930708 0.0 -2.3590633439978266 4.6897357431662945 0.0
159 1 0.9350746633092232 17.990462458971585 0.0 3.0277493403633633 9.141099090288002 0.0
160 1 4.049202411156893 19.44489532257777 0.0 -8.760121528917974 -6.366828768118987 0.0
161 2 2.118361990312631 19.12463017813338 0.0 1.2269928402904704 -5.803581299692243 0.0
162 1 16.158993824401183 11.118230283442381 0.0 2.558003402035049 -3.0058499745429956 0.0
163 2 6.065397891062933 15.25591137620559 0.0 -6.261796339398731 7.125686784717701 0.0
164 1 7.874266215607742 15.801443506152292 0.0 -5.58255667663951 -10.683066582352529 0.0
165 2 7.8770345227663485 19.613857692574737 0.0 6.698527615883221 6.549737990788293 0.0
166 1 15.661258468361522 15.013177068762824 0.0 -1.3424847519220475 -4.137019378844331 0.0
167 2 17.13844883389034 6.204252162350576 0.0 -4.57797237128077 -7.019323380644621 0.0
168 1 17.563172020869516 18.29062650114638 0.0 -1.8566104253348445 -8.7196127852928 0.0
169 1 14.270141129811293 1.3887261740358487 0.0 -6.429112935627088 -5.253022871071587 0.0
170 1 8.944025760485392 7.347578968008924 0.0 4.990389015095296 -6.531504319279832 0.0
171 1 7.129170523866424 11.208184895942056 0.0 0.842843355366404 -10.737315240328304 0.0
172 1 10.168203995429556 16.971518697650595 0.0 1.874366469855438 -9.546996723618806 0.0
173 2 14.135725505670846 13.037005988664092 0.0 2.2718200211637667 -6.558319321408481 0.0
174 1 2.5838744703019243 7.26258508832087 0.0 4.086656898205243 1.84652741772955 0.0
175 2 12.064915075673957 6.433227231097434 0.0 -7.655606779356262 4.4272355715951575 0.0
176 2 18.44826659683517 8.581598930111419 0.0 -7.358320516214028 0.6098268979244971 0.0
177 1 7.145506854679925 18.69487759880887 0.0 5.634729195636724 -6.942149204839846 0.0
178 1 6.585591293569103 13.325024529921752 0.0 -2.822824704036506 6.106745598404834 0.0
179 2 16.924439621830185 13.054780326142131 0.0 2.460372103475732 -0.1516508345882413 0.0
180 2 0.3456828313817799 5.290295313680008 0.0 -0.050519616558783134 -4.378432931371446 0.0
181 1 3.202851193368171 0.7708626353929119 0.0 -0.9355652840581536 9.589020360602163 0.0
182 2 15.030965714395103 13.092527903112329 0.0 2.411078905656397 -0.7114031150261511 0.0
183 1 2.6991833482927303 14.461799128921642 0.0 -21.944090697330076 24.874927197581922 0.0
184 1 16.917495145595783 3.7270651029618826 0.0 11.14869495788756 13.22572846901903 0.0
185 1 15.965149632364355 14.32823344604009 0.0 -3.0646781589037526 10.255286197004727 0.0
186 1 15.274489989414771 19.01566668963151 0.0 -7.053028931610096 -0.1936669392737528 0.0
187 1 16.085628324829393 7.333700634202994 0.0 -4.203732944728715 2.4223675860953837 0.0
188 1 19.44083287830576 14.111032847419793 0.0 9.170239615708189 -4.515162084529738 0.0
189 2 12.534753401169715 18.489226925239024 0.0 -4.674719811406967 -6.338489728409957 0.0
190 1 10.665907077471237 2.20952809418555 0.0 0.6105486634959799 -6.689726062914094 0.0
191 2 0.5169868378606325 8.821177614069116 0.0 0.4750307882468499 7.052716213502043 0.0
192 2 12.122052341420062 16.26511512624593 0.0 6.994105640811416 5.2226160735270195 0.0
193 1 17.535512218002484 19.30173744234909 0.0 -4.5829405350660055 -8.758936533061991 0.0
194 1 16.719176158601247 18.442070141795252 0.0 -7.073829367595559 3.9032680034988503 0.0
195 2 17.009241707982603 10.04118586927506 0.0 -5.741474643713998 -4.190632218581819 0.0
196 1 4.5228100722458215 19.315520160006976 0.0 31.72219983772395 6.045752982578869 0.0
197 1 9.57002654020722 2.8162736326103572 0.0 -5.691041899247937 1.1225566575355899 0.0
198 2 19.490943764412883 6.9064046030261705 0.0 12.97305385867978 0.8948488650632742 0.0
199 2 18.07960632994323 13.664176983805335 0.0 4.360103556203626 6.823771183743308 0.0
200 1 16.575445300056924 4.241376076313949 0.0 -2.8335999022343517 -5.904567059135545 0.0
201 2 9.741806029380779 15.212981199261147 0.0 -4.437064540567615 -1.6354041378340525 0.0
202 2 16.911413010633428 14.469297394402405 0.0 0.1780033309289081 -1.3284211831583996 0.0
203 2 18.788690092347743 3.4352052797287427 0.0 4.426615073884297 -9.432001566877945 0.0
204 1 12.040942983810657 8.770471139612019 0.0 -6.423723648402594 1.9851108582326862 0.0
205 2 3.4665284024870546 5.83655080955834 0.0 3.1994697584286107 4.057907757988864 0.0
206 1 0.5277496030299342 14.97777956337768 0.0 -2.0909710702869364 25.225640706463487 0.0
207 1 18.925613898450376 1.485020940577203 0.0 11.85588210151137 -1.4520801771460572 0.0
208 2 3.531091182108755 3.06923076915723 0.0 -11.711405541569235 3.503751972304876 0.0
209 1 16.923697014105652 17.479687901714332 0.0 -0.18854725221295204 1.3263825066546298 0.0
210 1 2.073726541832997 4.2334425644645775 0.0 7.585777217699848 10.035378418437665 0.0
211 1 18.961912931146568 19.7577269487513 0.0 15.042776311198809 3.138960953680434 0.0
212 1 7.772982090877853 9.853323974714778 0.0 17.010157758834072 -11.346032709080214 0.0
213 2 14.285370235905942 14.857956546508499 0.0 1.184058398542479 -0.14585008805915028 0.0
214 1 11.48001165778561 9.968014894443321 0.0 -10.999496277120317 -5.038422063382322 0.0
215 1 7.095061968207751 8.87483720826506 0.0 4.038165341845658 6.055825860855032 0.0
216 1 1.761486033703597 11.772095979422273 0.0 0.21374233786990715 -0.47825859795147607 0.0
217 1 10.68746540667584 11.137177464854075 0.0 -9.189707318620433 -4.860936848691955 0.0
218 1 15.780187635029455 4.029829771380257 0.0 -8.711135103465475 -13.436637117014405 0.0
219 1 2.8828773401558947 2.285991588489742 0.0 -13.600894808480597 -4.927949233329723 0.0
220 1 1.1443258181193792 19.170453664714753 0.0 6.386415188373172 3.9022393260800707 0.0
221 2 11.46920151648974 15.693455126800004 0.0 1.6481721582057636 -2.7184866469399114 0.0
222 2 18.01960817350141 2.7789370130829547 0.0 -4.062463045776948 1.4248156573409188 0.0
223 1 7.84670481813412 9.17114227000022 0.0 -9.117548448754077 0.07557758864319074 0.0
224 1 6.875522801731416 1.526007912300658 0.0 -9.982534001028093 1.0921943529122622 0.0
225 1 18.301736716087966 0.33187567009632707 0.0 -5.578956567132367 -11.662617999873495 0.0
226 1 17.0109463942682 16.95453996043079 0.0 2.5908151074832504 -6.31499772285117 0.0
227 1 16.073288186786254 2.785841212418098 0.0 0.04319324932533381 -4.398737283475226 0.0
228 1 7.980082370864465 17.57792633684187 0.0 1.8188018191653526 1.599007616544508 0.0
229 2 2.0864029631882635 10.403498262135486 0.0 -8.609698554867192 -0.3539235662949832 0.0
230 1 11.526621140869203 7.11800749185618 0.0 -11.037161339177743 -2.365916400990051 0.0
231 1 0.11382178655239818 18.599007640836223 0.0 -3.2911373786058116 -13.120935846001887 0.0
232 2 11.000120684358931 8.507243415148277 0.0 5.614895251100236 0.6569187098027764 0.0
233 2 14.491363287511811 17.75294627109322 0.0 1.014225800021076 18.669455992072326 0.0
234 1 15.818971888350989 13.178115743644058 0.0 -6.6252271987579965 14.965752992163825 0.0
235 1 5.294232083629507 19.266166334940426 0.0 3.4769616119031577 7.09906699769692 0.0
236 1 18.511325964497622 6.790995547550787 0.0 8.910706269299588 -1.238613975851288 0.0
237 2 8.249125362996994 16.642339782308206 0.0 -13.443845513178417 1.7453768639539575 0.0
238 2 9.963547163189668 14.214226358613683 0.0 -12.452099923720791 1.2772770926517536 0.0
239 1 9.638726623568777 17.99499697554608 0.0 0.6713228370309706 16.31519647835304 0.0
240 1 14.9726347772964 10.992893264885911 0.0 26.309408127044257 -5.820998122645079 0.0
241 1 19.659685780032053 19.747220275123997 0.0 -8.204218174540971 -8.168506367221823 0.0
242 2 0.7335739777789088 16.931493275533114 0.0 -1.0032358692784713 -9.540018527771515 0.0
243 1 13.222458586830166 10.34258654587734 0.0 -1.6048423662391857 -7.53839269734641 0.0
244 2 15.352093418081347 18.136869548988802 0.0 0.1458878362257095 1.1008455679635192 0.0
245 2 3.708987219471277 1.757354103653243 0.0 0.44709926614080453 13.186921013659871 0.0
246 2 15.598313007013719 6.406559672729005 0.0 -4.545818680028056 12.584174385869687 0.0
247 1 3.4328733588534615 3.9921036972013146 0.0 3.1938333291009617 -11.641005630291568 0.0
248 2 17.79034240499342 4.76836301316911 0.0 -10.997034732549414 -2.809193125518499 0.0
249 2 16.223370573809323 8.15529730275401 0.0 1.3422646517965788 -5.252955432461955 0.0
250 2 5.649556672631436 2.9996448175720074 0.0 7.774698916332612 -10.938871412873823 0.0
251 1 13.921839984931339 15.782262641409671 0.0 4.408688285037862 -6.677725148092578 0.0
252 2 4.065624022914773 0.8128484159548167 0.0 2.59563362751885 -0.8905099261681774 0.0
253 1 16.675667509263338 3.217143337264505 0.0 -0.6398613150030097 -2.7129999202750708 0.0
254 1 7.810182453779978 18.523264718036828 0.0 -1.8390422880249564 9.64915006388082 0.0
255 1 1.0925436028233833 11.13908939019386 0.0 2.2227211151003647 0.16680391305739137 0.0
256 2 9.72216148800706 1.4358956395045912 0.0 -4.627905696318049 4.09035410636448 0.0
257 1 0.8090061512242294 18.669521390753502 0.0 13.254732735046844 4.120781055809849 0.0
258 2 9.16448481512946 13.056599761946396 0.0 -0.5977656035596721 7.86309304142739 0.0
259 2 8.518616422500816 1.6049971066943696 0.0 -8.341467113228827 0.12564811676250398 0.0
260 2 0.5368929477325179 12.756081449813648 0.0 -6.28613665581996 5.626741373126496 0.0
261 2 18.610126985441504 7.6443696228609985 0.0 4.061769734280788 -6.672872518477205 0.0
262 1 3.991581621147207 13.690729949550926 0.0 5.20643287088182 -4.710394042597111 0.0
263 2 19.70423442118793 17.51402201636268 0.0 8.238204439707543 -3.163236294363641 0.0
264 2 16.152566572645316 19.175687406036467 0.0 2.4038984569544954 6.1006730785937755 0.0
265 1 9.201277287012976 4.503085973720152 0.0 -14.231246336138211 -3.182506806529328 0.0
266 2 1.8637398643499998 14.89942161298001 0.0 1.6760659860015987 0.16176641719190774 0.0
267 2 12.89041830344926 17.017248650904925 0.0 -8.924505604709218 0.3117843177694868 0.0
268 1 9.69916166616057 9.553036228246787 0.0 -9.928769243382908 1.6658222121330573 0.0
269 2 12.459119312177124 3.0040524188467153 0.0 -7.431968867494799 4.171300993765013 0.0
270 2 10.823922539251985 6.315130839061642 0.0 0.6562050028901993 -5.032529327714972 0.0
271 2 19.226909451023626 5.95730582122778 0.0 -7.2192476093840545 2.837426921693029 0.0
272 1 6.340056130522858 11.79937033962573 0.0 -8.459470714269182 1.1167614994179016 0.0
273 2 6.633423276721588 7.963092830794851 0.0 -3.634612946929202 5.823563971170066 0.0
274 2 1.0148212517340442 9.963469171857444 0.0 -6.437329108269548 10.033599322548215 0.0
275 1 7.367890362118563 9.39846179208564 0.0 -5.655964117788784 -4.197229164453606 0.0
276 1 3.862185054568618 4.6146773178068035 0.0 2.310374573576354 1.2132042080718377 0.0
277 1 12.269543005890577 13.570295606844509 0.0 -1.6249459312170147 -11.538437125673639 0.0
278 2 19.011232109466263 12.149821972048818 0.0 4.168649789010421 -5.819974175760922 0.0
279 1 11.696442545385867 4.124140805845468 0.0 10.131666706383609 -6.299026372702102 0.0
280 2 13.551622105258794 18.035718539139477 0.0 -7.144826344014951 0.30683996938907154 0.0
281 2 12.194311537950961 17.495420958045095 0.0 6.2596722849812725 -10.087864022678001 0.0
282 1 12.459712234125643 7.822500131196213 0.0 -0.2169208903207457 -1.4762625483796874 0.0
283 2 16.200146741646144 5.134058428253805 0.0 -2.2199344811189525 -2.384827298106206 0.0
284 2 11.397536339017387 3.2867489098605236 0.0 -0.5818689923960038 -14.409128117519597 0.0
285 2 9.082892276316777 3.4099541699152365 0.0 14.429940168851717 -3.8149038994824633 0.0
286 2 0.5862179981781226 4.540082679572111 0.0 7.2180127823229805 0.6648978566889284 0.0
287 1 18.17551455677953 16.059263793813898 0.0 3.6342537709192273 1.6762211204161412 0.0
288 1 8.408677424534726 18.65136145545927 0.0 -2.7714706799345974 -2.995056661295502 0.0
289 1 9.859324230592357 2.2691364549411537 0.0 -5.817183477630734 -6.0649508660709515 0.0
290 1 14.499905124993802 18.618400314157306 0.0 -10.6102499925713 16.43598103760663 0.0
291 1 18.097098579777686 10.715617109084803 0.0 -2.5773802303267757 3.597649933997704 0.0
292 2 13.331193329011846 2.8625283192138222 0.0 1.111688352312735 -3.3815084261683563 0.0
293 1 6.3898711788335225 14.422706010606845 0.0 3.3104323334018773 8.805263918379758 0.0
294 1 11.588361672755498 0.19868437680363604 0.0 5.611088159271689 15.820537857727844 0.0
295 1 15.818157984986264 13.610382945962613 0.0 -5.174329381720738 -9.114105716129723 0.0
296 1 6.007927379504665 0.7627299140502675 0.0 8.80815566615964 0.19941596536536038 0.0
297 1 14.023019235480199 3.9578962628098315 0.0 1.1024162125868018 23.487058134244105 0.0
298 1 4.843303092595963 9.981994415353494 0.0 -1.2619828667568782 -8.944589342021757 0.0
299 2 9.989489125598682 0.23033026877266316 0.0 -2.3370448642079475 1.1435561111254018 0.0
300 2 10.636356372226679 15.27051043364527 0.0 -8.849622320795392 -1.9286914251950011 0.0
301 2 3.933898306700004 12.684419741690075 0.0 -1.5482446790865099 -1.612520460708489 0.0
302 2 16.306686023761436 11.951689075497296 0.0 -1.8392522657919723 -2.9946439105855727 0.0
303 2 15.37429105908974 1.0512542061178192 0.0 -1.1843761254372838 1.2937656421329213 0.0
304 2 10.222646881278584 8.187609817763798 0.0 9.286541028714973 -3.941731042025514 0.0
305 2 13.491708570630616 0.7574111055355554 0.0 -3.5374779156016247 -4.252649039747282 0.0
306 2 19.673322714008982 1.9066191910086503 0.0 -2.614933582252679 4.413973359279806 0.0
307 2 13.339368709975437 9.272162070238359 0.0 -13.7044387512178 -5.576709855527976 0.0
308 1 12.24716410495772 12.048912582248056 0.0 -3.4453295032441678 11.770946072063731 0.0
309 2 17.658057920102376 3.5443183350569205 0.0 -5.543192277785769 0.9478951757326068 0.0
310 1 13.461475442993846 3.9945691904059246 0.0 4.130370139275141 18.733661123038647 0.0
311 2 1.6960714515713193 5.151230990556771 0.0 2.985264975197917 -7.952826530279752 0.0
312 1 3.074855538346498 9.584225693268145 0.0 15.679113768960056 7.530816637574711 0.0
313 1 0.13590314447932567 14.446037445608145 0.0 -4.833990846403161 1.847886053403275 0.0
314 2 8.872420152426887 19.254035233960717 0.0 5.247555022460163 3.006257821022397 0.0
315 2 1.7969072847572085 12.600121099979368 0.0 -6.345116801295794 -1.2400730748145892 0.0
316 1 2.0405902888712544 2.5071642238288026 0.0 -0.493754764961308 -8.371725197313133 0.0
317 2 5.8889521629704635 4.710189460623933 0.0 0.9149305504583369 1.4636382417268274 0.0
318 2 5.232803076548237 14.113176857709664 0.0 -9.456229131786047 -0.39909970974411696 0.0
319 1 19.361886958121143 13.56047806825512 0.0 3.933439838413303 3.8315717143433807 0.0
320 2 19.036177096650384 18.602045782315226 0.0 -4.573932919358823 -11.20528382817476 0.0
321 1 14.445793194285374 3.0487647860611644 0.0 2.3919825967510797 1.8585822321730665 0.0
322 1 1.0576223397058868 3.783772659630532 0.0 -2.933572305097031 -1.9351084077040024 0.0
323 1 2.5839739194199254 2.9430406764386587 0.0 13.108309646257768 2.698391725822068 0.0
324 2 9.045513780090488 0.8288224378290364 0.0 -0.622691439995499 -11.699202730715186 0.0
325 1 3.471893934190686 13.724517462253493 0.0 1.4780764959741337 -0.8311413873751451 0.0
326 1 5.357890047925163 9.324887939799943 0.0 -5.220484325874738 6.344547398889584 0.0
327 2 12.895124934410113 0.12062072010079161 0.0 -7.147412659812966 -6.1927839237812705 0.0
328 1 4.555653149946796 6.299125835762745 0.0 15.117279932582848 1.142704417229417 0.0
329 1 18.865086049922937 13.970517009393417 0.0 -18.96413972912753 -1.13339664251884 0.0
330 2 19.67738115564372 1.0028342482841894 0.0 -5.827410890162218 -11.086776869265774 0.0
331 2 6.6014291646841246 17.14169314110103 0.0 7.092477905095749 -4.504077943967449 0.0
332 2 19.663469700017675 9.69951710207754 0.0 3.851302107498439 -1.9894555681537662 0.0
333 1 4.461244117138362 8.873497619705132 0.0 10.548216300107507 -12.753668287632083 0.0
334 1 1.5299536958822957 2.7931901684285037 0.0 -12.64083816213937 -5.157416496660666 0.0
335 1 17.813601548874296 12.091310227852036 0.0 -2.681371390958172 12.195763268292495 0.0
336 1 13.322967691606598 14.747240128190153 0.0 -2.47521544281053 4.779077405055546 0.0