ITEM: TIMESTEP
0
ITEM: NUMBER OF ATOMS
400
ITEM: BOX BOUNDS xy xz yz pp pp pp
0.0 19.7609 0.0
0.0 19.7609 0.0
0.0 10.0 0.0
ITEM: ATOMS id type x y z vx vy vz
1 1 7.318090921454707 1.3763054449274792 0.0 6.49049956612205 -5.825018596109276 0.0
2 2 14.818569162010162 15.636972021563075 0.0 -4.175690261463514 8.2559726488075 0.0
3 1 7.956080137680753 19.18013380031607 0.0 1.0735060576247726 14.527324267185707 0.0
4 1 13.008392062137938 14.37032585979297 0.0 11.31896771010056 3.6909643145942197 0.0
5 1 15.262073806536641 1.0458527418600259 0.0 -4.796334676089093 -0.7335155053790147 0.0
6 2 5.405447094724438 18.361130640066968 0.0 4.664003633904029 -2.901441545862481 0.0
7 2 8.305548125633653 18.39439611202564 0.0 -3.484514052391948 1.6327100185704109 0.0
8 1 4.279871758345037 19.054777047089804 0.0 11.026578752702017 -11.364269477394014 0.0
9 2 10.806757802435564 18.08987724670134 0.0 0.8721129589189022 3.439820159003105 0.0
10 1 16.50188996959372 9.700731595822589 0.0 -4.463829988487301 -4.97261506990202 0.0
11 2 10.882235212817411 9.110863821404047 0.0 2.8368802416050354 1.2024354450829726 0.0
12 1 8.552075574571719 2.0513767272312595 0.0 -1.982255666683405 -5.971770679253347 0.0
13 2 15.756223610021566 7.999315060331084 0.0 4.110822503754954 12.063502964457209 0.0
14 2 13.992561558594403 11.710232410495932 0.0 -1.4256050862814165 1.3446600275235379 0.0
15 2 3.145182419592945 14.921190637695005 0.0 2.9134283706883126 -17.657200755900543 0.0
16 1 18.24208885297798 10.04074815076761 0.0 3.117320925065304 -1.5401901554707609 0.0
17 1 12.763701219712406 19.72582776597471 0.0 1.1679173125460787 -11.370389532936871 0.0
18 2 14.703768771502538 19.6995032929935 0.0 0.7252218642736363 -5.027403103270581 0.0
19 1 7.000306169379637 1.669781554150175 0.0 12.233430987874367 -10.291525501458578 0.0
20 1 6.291582738371951 14.381324467973139 0.0 8.349106463255302 -2.011522379823374 0.0
21 1 17.224734073602722 12.264085984478436 0.0 9.486369614510478 4.4661998512746415 0.0
22 2 2.8085265062110527 3.893041372711802 0.0 1.4541221466528167 -8.652745447116109 0.0
23 1 16.998874076098087 16.662063686081055 0.0 3.749224468570974 9.00924676588201 0.0
24 1 3.7170750392367626 10.542712769778648 0.0 -12.536931086526105 -1.7234742213831231 0.0
25 1 18.591700397888225 12.040179079977811 0.0 -0.375101065360249 4.471795978493591 0.0
26 1 0.5251101419005417 6.94916846294234 0.0 5.270863405474973 -12.909819788800228 0.0
27 1 9.864093533446837 4.154041356266042 0.0 10.882075260722118 10.245503693770335 0.0
28 1 15.314053454777829 3.9901434973644956 0.0 -7.5694851144681055 4.840856865012534 0.0
29 2 7.441646583346625 6.308383225471573 0.0 -12.017005442751158 7.438849035686693 0.0
30 1 14.526756026187748 13.420449808874634 0.0 -8.03310579821435 -0.1477745184903185 0.0
31 1 17.464710314635195 2.9377316675919927 0.0 -2.1860909015296444 -17.144930484691706 0.0
32 2 11.831303359177946 14.934580922745436 0.0 -7.115153449623743 2.6882093395980617 0.0
33 1 11.725389972155773 9.428647447456997 0.0 -2.2596673421037448 5.7377220633144805 0.0
34 1 5.851146140837989 9.173764509334788 0.0 -0.17044007858791502 7.529942458721809 0.0
35 1 7.873771876513488 10.636837432430745 0.0 -6.970530469829321 11.169984792367819 0.0
36 2 1.2150693712799316 5.765403513776411 0.0 -2.820202622657984 -8.6361195419774 0.0
37 1 8.907973133773657 12.02991028823792 0.0 20.16639699055545 -2.286773660210603 0.0
38 2 13.310124440238862 10.853766060894609 0.0 -11.446336245179834 2.713616055134722 0.0
39 2 18.23774500556794 19.273433095234154 0.0 3.0137080525129667 -2.957678831497344 0.0
40 1 17.04393179107266 17.424942042913 0.0 -9.073665149734845 -5.884837994260317 0.0
41 2 2.3335549119048804 4.772079135438689 0.0 -0.1007805930960262 -13.46859934465087 0.0
42 1 3.3405642840819953 11.62864873544803 0.0 -4.8605536694065705 -4.407976170772182 0.0
43 1 0.5599988595893661 16.3482506130748 0.0 10.921839685008306 -6.921766055557394 0.0
44 2 3.5535932524238136 18.57881974709724 0.0 -0.8278959725111043 0.43835777368767875 0.0
45 1 13.259087015491959 14.947120463628115 0.0 16.442930032092164 0.2025732775301546 0.0
46 1 12.290846198534009 11.752598642090922 0.0 0.7830391473683201 -10.916435288925737 0.0
47 2 18.558202326926157 6.586375265153291 0.0 0.5321804133570167 -2.885725710645652 0.0
48 2 2.3863086512555647 13.948856034495417 0.0 -3.565594436720694 -4.286098195540381 0.0
49 1 4.81199826569161 14.45167343369311 0.0 3.46985580617997 -14.385475394783866 0.0
50 2 17.118423439832906 13.567546156777103 0.0 1.202661990029772 1.6680443509965364 0.0
51 1 14.93249383673388 13.165605404680418 0.0 9.299681478230443 16.855619870560453 0.0
52 2 3.1005096274751267 17.085698770448417 0.0 -2.7105586886249626 -1.2662664054727861 0.0
53 2 7.538668667617201 7.559365941372122 0.0 -9.43405297084921 -6.22294678687486 0.0
54 1 5.922892744570636 14.604289118870648 0.0 1.9107867143903505 -0.9517846669976208 0.0
55 1 8.823727246252611 9.715631663424604 0.0 0.23051574649147574 1.755911286171295 0.0
56 1 2.7772802455617542 11.557285710639562 0.0 31.104425078461023 -10.355895982481636 0.0
57 1 16.22458346573788 9.285806143873465 0.0 -3.1675419344990927 8.72512790743256 0.0
58 2 2.749931441651934 19.310135353564043 0.0 -8.605714218701676 -2.6125671397130104 0.0
59 2 6.078230950117076 6.919324835457069 0.0 2.908689656674417 0.2905039148741645 0.0
60 1 17.15051731570766 10.462982809144222 0.0 -12.181582200877425 -0.07352583020182331 0.0
61 2 9.18600618989113 15.04827005212393 0.0 4.233994841320288 8.10609423468358 0.0
62 1 17.194604645273362 3.8152317679409515 0.0 1.0333947317494772 5.37561728148069 0.0
63 1 9.353550896558591 7.619116698173783 0.0 -6.909818393443738 12.500840512406633 0.0
64 2 6.430836299619058 18.683267003089455 0.0 1.528694962851622 11.255314579983333 0.0
65 1 12.151922982080047 0.7514456261423842 0.0 18.837801812150474 -8.947605049164268 0.0
66 2 3.311610218137164 9.650449680060857 0.0 -0.9562340090464474 -8.21134535486592 0.0
67 1 7.046113527150181 0.6363020438532209 0.0 -0.2963516634150061 -13.765391118496051 0.0
68 2 13.642631005153207 0.554094801819073 0.0 -4.890984092962292 1.8575371150253661 0.0
69 2 6.284053021679054 4.8410007991234725 0.0 -1.0220883679947752 3.8723052776308022 0.0
70 1 13.070775160655579 9.514133246123935 0.0 -9.261173719015169 4.18513621810686 0.0
71 1 6.766953699161531 14.408536819044054 0.0 -1.968766168819455 7.214813993166348 0.0
72 1 7.900633025451953 14.902827652709766 0.0 13.381683405046177 3.7174485933526555 0.0
73 1 0.5289553737846548 0.6151092982332215 0.0 -2.7702199312788487 7.478994126821141 0.0
74 1 9.980332378001798 15.795808776325957 0.0 4.034056934242914 7.669543413422051 0.0
75 2 3.8411214759580816 12.777825134596501 0.0 0.5259369354346822 0.38043239231096454 0.0
76 1 9.64528694788425 0.5125912497328587 0.0 -3.522091339701404 -9.203238533255798 0.0
77 1 8.212241558536013 15.983678759642945 0.0 -0.43475895233220907 0.9875152692760389 0.0
78 2 15.54337830093009 10.05072735807306 0.0 0.7803236730122329 -19.647789891600283 0.0
79 1 8.76402316171304 4.474921677516493 0.0 5.915544851682306 -7.035064145287771 0.0
80 2 7.143970712109828 19.474742284771047 0.0 -6.288186738219898 8.810338010603086 0.0
81 1 17.774769012253586 12.528081857868226 0.0 -3.726287128378731 -12.180785124940911 0.0
82 2 7.9716436642064785 0.4075211476452242 0.0 4.622073049820825 1.646895526836589 0.0
83 1 6.323493549038272 8.713194665202526 0.0 5.745716415915215 4.465362759044776 0.0
84 2 4.451905170682539 16.97610790687122 0.0 5.411652516054521 -3.6625483176505735 0.0
85 1 14.503645379087747 14.458865872693416 0.0 -5.004813529234406 -3.1100698517243903 0.0
86 1 4.982559471497444 6.928073005090496 0.0 2.9222683081914593 -6.119062176925454 0.0
87 1 6.200985494630999 1.7339975193794896 0.0 4.6433025969749275 5.766608447315055 0.0
88 2 1.891827929654495 11.880845510950882 0.0 7.283652881320727 3.2665857648584224 0.0
89 1 4.171680457584681 6.273700635440111 0.0 -7.44900912775543 9.61304256184305 0.0
90 2 2.287079593266757 0.3976073240107773 0.0 6.568959558774091 -9.972670617092543 0.0
91 2 10.672647329626438 12.43088532943531 0.0 -8.212082375188245 4.401185201804314 0.0
92 1 12.682491457630128 14.07192759253945 0.0 -1.63769314190071 12.802427900965933 0.0
93 1 14.217292884328508 3.126769239033894 0.0 -7.38312263254488 7.758512186524509 0.0
94 1 19.2432433234954 16.643548085574707 0.0 -1.8492550311443503 -4.093198382678546 0.0
95 2 15.567960169659395 5.690383466902127 0.0 4.1743527864738335 1.9883772522567946 0.0
96 2 17.034099660989025 19.160879893515855 0.0 -3.155775547229559 4.857795520781056 0.0
97 1 2.9240694602616393 12.114153009559526 0.0 -16.767218054758896 -4.688051115012011 0.0
98 2 13.08236694911417 2.7986234969957073 0.0 10.006248521405405 2.4361457639952366 0.0
99 1 19.23420955869781 12.513420593887599 0.0 -8.207800234681006 -0.35675010376432376 0.0
100 1 3.11432037020524 8.930826949845386 0.0 6.91927147047086 21.04814412264594 0.0
101 1 3.5142279958339793 11.217816989990775 0.0 -8.217489947087563 13.288916987206976 0.0
102 1 7.097175566010377 3.5990723577037955 0.0 0.35718115556400065 -1.7576482991850069 0.0
103 1 7.737651464703758 17.744015615457737 0.0 7.217249523749134 2.2648259817621446 0.0
104 2 14.549636448458232 7.851161209250072 0.0 -14.81530617018843 -1.9295263017647166 0.0
105 1 17.79434594346869 15.290931940534735 0.0 -12.272767592123516 7.901236935565008 0.0
106 1 14.66853516846071 8.638838524013709 0.0 14.81527681992149 7.910317241019829 0.0
107 1 17.83405209699493 14.229912411888847 0.0 -1.373059019205295 -7.172091933777209 0.0
108 2 9.868206974277758 9.25432217891606 0.0 3.420427512011439 0.3317404271926835 0.0
109 1 0.18089628816558234 0.9624876274841623 0.0 -2.0982688846139297 11.528271324560935 0.0
110 2 2.934961492992868 7.871154069931732 0.0 -4.676444174144234 6.933819937397871 0.0
111 1 17.54197595153987 2.1847697092547995 0.0 7.644773750745813 23.3692089612676 0.0
112 1 1.949297698395223 17.08990697955542 0.0 -7.895880003580653 -11.042198891876984 0.0
113 1 6.80964886638505 15.308906773615188 0.0 -17.04622452468522 9.21489543759461 0.0
114 1 10.613271067176656 16.640888082800192 0.0 0.19895000938253743 -11.6157439506289 0.0
115 1 14.517585806259552 5.198950061523998 0.0 14.78950582397881 3.120235057473226 0.0
116 2 19.12617936658961 8.052706571597925 0.0 3.5378611608953054 -0.3803411602362468 0.0
117 2 4.982149638446393 6.071232857656886 0.0 5.460940445923642 -8.117909240396724 0.0
118 1 17.65807947489256 8.036981179661232 0.0 3.5820682870652645 12.688345586989943 0.0
119 1 19.204714191953236 14.659597399756064 0.0 14.643482170136895 4.794929583149529 0.0
120 2 10.016647154347355 1.550795440546303 0.0 -6.7189550876649795 10.612792344497539 0.0
121 2 4.3103515216779975 11.012029023731928 0.0 5.483616476754661 -2.4964051861744516 0.0
122 1 13.60242788542549 4.566064824584108 0.0 6.6484191925730345 1.0688128179820853 0.0
123 2 1.6553054455311322 16.15452731897212 0.0 -3.7826651068526442 -1.1128652197028914 0.0
124 2 19.454184930081404 6.097827258953949 0.0 0.42114088650266274 3.8218790091247574 0.0
125 2 2.2148891806565123 9.623312856354845 0.0 1.0350958087184183 -6.514239892455515 0.0
126 2 7.052173808768669 17.223715171257172 0.0 -7.15283669600684 -4.772127167952481 0.0
127 2 14.551581475073812 17.67665571556018 0.0 7.803260067701201 -3.5658425233525817 0.0
128 2 13.485815090971437 1.6682438607975318 0.0 -6.997941931918923 2.0584908357499865 0.0
129 2 2.1187129860924294 5.5986446313182885 0.0 4.799570694860565 -3.258054183641455 0.0
130 1 16.421522660704824 1.9542904645281824 0.0 -1.5010718800123337 7.149663112798459 0.0
131 1 6.810846579005729 8.546926351408775 0.0 2.440396359188098 -4.932386407646462 0.0
132 1 8.437364234089982 10.117043203843217 0.0 -5.146690068638458 8.443048133472402 0.0
133 2 3.608737771040571 13.706987843697684 0.0 -10.226792287256274 -10.688012497921122 0.0
134 2 6.002563285632434 15.914569468202263 0.0 -3.865489541264506 4.5097912661457835 0.0
135 2 16.423362908520087 6.22254298385567 0.0 -9.271011103652679 3.7345521700362423 0.0
136 1 16.07934697993433 8.841233781451075 0.0 23.094334430681407 -5.145085407675336 0.0
137 2 5.898695448314929 12.114536517561145 0.0 2.293334252867827 -7.394276913233298 0.0
138 1 4.610758280427574 7.522187495414981 0.0 4.511859828626374 -4.787731476382441 0.0
139 1 4.811719172970948 3.1809763819629713 0.0 3.0161519528772747 1.7251346865641435 0.0
140 2 0.24753019266414664 8.900893728427727 0.0 -8.66231596332037 0.6404758445331121 0.0
141 2 1.4741621207784692 0.594436632267359 0.0 -6.784896773119256 -6.956818132730921 0.0
142 2 10.919319311337686 6.96711642972443 0.0 1.8450306936952239 10.371404476950483 0.0
143 1 15.126720299173165 10.836475481600786 0.0 4.619228184783964 19.73393942404355 0.0
144 1 2.156109602734228 17.672690011398135 0.0 -14.310121023918084 -13.073288799653723 0.0
145 1 10.067734386329478 2.5789169856160723 0.0 5.282725985027095 -8.817044079916343 0.0
146 2 16.450108503451634 3.958863852808889 0.0 -11.375476464341054 -5.8238754772924946 0.0
147 2 13.044789132379421 6.143268921566806 0.0 3.1433548789932506 2.2347684038809343 0.0
148 2 1.006154935058231 15.465412380206299 0.0 0.07188224864016513 2.16667436592167 0.0
149 2 13.635305788512687 16.235626855829135 0.0 -12.50144100174292 7.694814820495895 0.0
150 2 10.658373723477476 10.138156038973154 0.0 3.8996241836275765 5.117167784362968 0.0
151 2 7.678271360561573 11.988407580092138 0.0 -3.2991639654508096 6.920345717340627 0.0
152 1 5.98236135442772 10.30403963251975 0.0 3.065125022151142 -4.193731981922958 0.0
153 2 7.070491338544497 13.669778508138618 0.0 0.24726019557045292 11.589290032388906 0.0
154 2 0.39508261448614057 8.082414456969401 0.0 0.15180436265285233 2.9692060531069977 0.0
155 1 4.383902729271334 0.549119942566805 0.0 -8.855682992225923 -1.715302059693826 0.0
156 1 8.26210411099558 14.454686282385984 0.0 -8.144716487985965 5.612169338057334 0.0
157 2 19.071509029111336 4.5935493042431625 0.0 -2.282453476146477 -7.6710844770985585 0.0
158 2 9.04622363734639 17.048854325677986 0.0 -2.203543690503214 -6.787053916437337 0.0
159 1 12.66491422611401 1.3443662275987711 0.0 -3.9427195467064506 3.9517367575830797 0.0
160 1 3.7639237422173424 0.2771709675978311 0.0 2.448812071671637 -11.946137709573327 0.0
161 2 0.3780531316846786 5.334751542448752 0.0 12.317684877552743 -4.771434844274654 0.0
162 1 5.8145081121642965 1.4595963977903739 0.0 -3.871809132864108 -3.455004757043291 0.0
163 2 13.357389686721266 7.024403053687004 0.0 -1.2828743797182927 -5.022875490861078 0.0
164 1 18.57367359199685 12.728064902941208 0.0 2.128694352001688 -8.672837435770433 0.0
165 2 1.444888857007218 4.792229845396928 0.0 7.551947058700214 -7.477009030518477 0.0
166 1 18.605347724111983 16.92242786991556 0.0 13.735780694299047 9.368039757981641 0.0
167 2 9.11310108208244 1.2051975001680004 0.0 -1.5469194855303658 -1.7709126750746536 0.0
168 1 11.444159083826918 7.6852707108891005 0.0 -10.645904204634157 -9.639171422353188 0.0
169 1 18.308813672138267 15.768452077195699 0.0 8.476165313586664 4.28432848037493 0.0
170 1 19.5301653279213 18.113262639328223 0.0 -4.377771620002282 0.8134325118355381 0.0
171 1 8.041854985756009 2.0514837907819627 0.0 -1.6677752038687792 -8.436312707365717 0.0
172 1 4.706028382073583 10.244378068526514 0.0 -4.7208500414617545 -1.4550194165498729 0.0
173 2 9.586373286171856 13.67141502529479 0.0 -1.59114891461304 -5.11134842559996 0.0
174 1 15.684439012300764 4.890594971655737 0.0 12.554882720825734 -13.224343761286617 0.0
175 2 1.9126128299227645 15.039456172146169 0.0 -2.742181597865674 -1.0892829914293172 0.0
176 2 4.910976951723202 11.776156277246077 0.0 -4.984641660753423 -6.926259439791881 0.0
177 1 1.1626950224349082 19.28331872185169 0.0 -10.10564827635031 9.401204605636138 0.0
178 1 7.555361139688178 11.06436293708099 0.0 0.5685726254574441 -12.04391239376113 0.0
179 2 1.3565268024729598 10.283552728015511 0.0 2.2100857415173496 5.9872078739986545 0.0
180 2 1.762104170274977 2.5076973294916973 0.0 -6.318117093909711 -10.815891250299659 0.0
181 1 17.893431099190938 11.829985550842895 0.0 -2.9581915012671236 14.108693917576511 0.0
182 2 3.5840163990504466 15.831119607014056 0.0 -3.7262908273556494 2.2406027739766627 0.0
183 1 11.797039754561075 8.047511094517123 0.0 2.4117876303432384 -12.024823780141967 0.0
184 1 7.771480725519864 15.748317770237332 0.0 -10.796820613151187 11.539649588850635 0.0
185 1 0.14619771998448056 17.39662958425621 0.0 6.376921131705 -17.691645847860173 0.0
186 1 12.246436992580724 6.272343074323904 0.0 19.631207871933693 5.719727014654297 0.0
187 1 6.796762305374751 7.580404491647821 0.0 0.7864935856161176 11.125734227989948 0.0
188 1 6.1460640741263965 16.94478926175552 0.0 -2.2671840225860964 9.827024421101552 0.0
189 2 5.079898963557602 13.302461950117218 0.0 -0.12406396541484434 2.7295483857614427 0.0
190 1 13.378951303760193 9.952466423223068 0.0 3.2353300914508636 -5.749704806266925 0.0
191 2 1.5044577055554247 9.22404565744355 0.0 6.228407591402726 -0.7298864255827429 0.0
192 2 10.785402064726318 14.840649424559187 0.0 2.6349202039395276 3.950639867668359 0.0
193 1 13.840909614989949 13.697396680376157 0.0 -0.42703692385711106 6.736971110605455 0.0
194 1 6.513014879788912 3.9429664109919327 0.0 5.1317840779236885 -4.5852728984657345 0.0
195 2 8.411074775039824 6.099150265442385 0.0 -0.14377524074260697 -0.48294308791246743 0.0
196 1 5.65944193522161 11.418875197349125 0.0 0.4406553437908643 10.223949969542202 0.0
197 1 10.529457610751958 15.698600887677054 0.0 -13.79751917275391 -16.246388276711837 0.0
198 2 16.359390292388998 7.260702817113183 0.0 -1.6061729051072142 -5.966343643626866 0.0
199 2 3.2109957357387926 6.956577689965079 0.0 1.570388720807684 8.617266127560882 0.0
200 1 19.584150306682442 12.78664153907161 0.0 6.29675969810928 2.974063516067185 0.0
201 2 9.84584507530716 6.022196453802119 0.0 -6.095276281280796 3.3533774458010734 0.0
202 2 12.172065624448031 18.386910911859385 0.0 13.601843673360227 -0.0070847882871266895 0.0
203 2 9.851828104668089 17.63179735873588 0.0 8.685502134725212 -5.953434887905566 0.0
204 1 18.607590579657998 3.827361766262478 0.0 4.002221061541738 -15.808405679681861 0.0
205 2 16.570099724618675 4.7584196265789425 0.0 -0.9846244152506224 -0.9714518383062238 0.0
206 1 4.274292215507385 14.504596837000568 0.0 12.351830847531891 8.049678471061055 0.0
207 1 13.051967111927937 4.381466535132227 0.0 -3.5837416003442857 -12.885281750631366 0.0
208 2 7.662552484702487 9.22957193743559 0.0 -10.380478088226752 1.622067130051017 0.0
209 1 10.716815612797228 6.20955416111936 0.0 6.6198280660481394 0.07886896336085687 0.0
210 1 5.429717226456883 19.43218614678978 0.0 1.4961621182779785 -1.7778399310471762 0.0
211 1 15.778159631977145 4.35877865966298 0.0 -0.9788766047750883 11.125171653224433 0.0
212 1 18.646222757193385 1.186009869352015 0.0 -5.476157125182551 1.954892044388037 0.0
213 2 6.3441498848987905 5.942717122566266 0.0 12.366648435086377 0.38975682251965377 0.0
214 1 0.17147763128070076 2.1285584465662897 0.0 -22.635252931183384 -13.27284527396234 0.0
215 1 18.326547784734817 4.16215933660968 0.0 -6.104184453670578 -9.459562676080578 0.0
216 1 15.727147343521755 2.7716473112060513 0.0 -4.886585313061991 10.080786340836077 0.0
217 1 14.24752325745269 12.560235468153891 0.0 3.448848326196763 -3.451525350524771 0.0
218 1 5.617802743848602 8.640380320685637 0.0 -3.00863891201265 -0.6011400320868358 0.0
219 1 17.661799958440348 0.1316229115034444 0.0 2.9342571409000917 3.0167524302446282 0.0
220 1 4.679704687347324 18.85892031621352 0.0 -9.691175021288373 8.190062265137062 0.0
221 2 17.21276483443051 7.08144693815258 0.0 -4.0899096403896396 -4.154144831361488 0.0
222 2 1.286000947285859 17.59112426541543 0.0 -6.565585194066998 -0.44396923719406073 0.0
223 1 14.412873336099718 4.17048225349965 0.0 -17.508473534340055 -4.600455252450664 0.0
224 1 14.459257952399497 10.05811208333949 0.0 -2.11577921359396 2.4733195784197513 0.0
225 1 1.1701732622887757 18.754002585997604 0.0 -10.361540291915086 2.951311370479313 0.0
226 1 7.347294544254773 4.955503972324703 0.0 -9.742111512719852 8.036745037782582 0.0
227 1 7.069698601461797 5.329464166303438 0.0 -3.570855515863096 -1.516554153061949 0.0
228 1 13.798812594707131 4.975445561668383 0.0 0.7334594510942982 2.010888167660212 0.0
229 2 12.589403895513614 7.501951180439964 0.0 -8.81334396510355 2.477820510403005 0.0
230 1 18.94065637726479 11.592022885821248 0.0 -7.547171569806121 3.7471063961818865 0.0
231 1 16.621139814812196 11.898691578011759 0.0 16.957121741904782 0.8087231688929339 0.0
232 2 17.89933011954381 17.991696399353025 0.0 -0.7707227651595768 -10.028968404396341 0.0
233 2 12.491638519433218 8.476459779521463 0.0 -5.47283492288636 0.8481798524963945 0.0
234 1 10.716697617921792 16.18273967068461 0.0 -5.819433591243852 3.6195479383289024 0.0
235 1 5.759068590843982 14.028937467342772 0.0 0.029071453881636983 12.051273881646065 0.0
236 1 0.004792738460338626 13.824885650428113 0.0 -26.61501214133704 5.56293599433247 0.0
237 2 4.06488459229545 2.321426608560597 0.0 11.176835865260774 7.470567833304655 0.0
238 2 14.001561656578799 18.91485339755589 0.0 7.767206334507932 -5.57887571828561 0.0
239 1 7.796424869664455 3.200081280939136 0.0 18.20721673804731 20.90130110634718 0.0
240 1 6.713881422918954 2.4342046440601224 0.0 20.308172500379033 5.835547383954535 0.0
241 1 10.14858154323294 11.760433223777996 0.0 -15.151336238464308 0.736224294448865 0.0
242 2 11.246474539769512 13.384594967478487 0.0 8.979226403292355 0.2877296057057427 0.0
243 1 4.513488259510279 0.0032981168640624503 0.0 -3.1650366844262807 11.868579889275457 0.0
244 2 10.155601368339346 19.125537127569142 0.0 4.27041671776453 11.934075222746603 0.0
245 2 16.756632986374328 8.087560273318712 0.0 -2.0725259432085448 -5.877011193208566 0.0
246 2 0.48506852110798426 4.01028935290836 0.0 -8.108333507067895 -2.4121283364193324 0.0
247 1 9.24176214072395 5.084167821191203 0.0 -18.299008367104715 -1.5285930853578684 0.0
248 2 11.357460011582193 15.68825785898834 0.0 4.849342355934151 -1.4674840498734603 0.0
249 2 15.605451614681709 14.845378563448158 0.0 -0.1094231629524288 -6.362828750954114 0.0
250 2 12.224827885565306 3.43462433045229 0.0 -0.41872465970614503 -6.200744568091593 0.0
251 1 8.91183635918297 10.428763289760504 0.0 -1.287746760006329 -12.653083014558892 0.0
252 2 8.509063036482926 7.090698328100066 0.0 2.799931990469774 -1.309347133175379 0.0
253 1 7.5727527774492005 14.294998414357275 0.0 -4.283983058104836 6.513557056079691 0.0
254 1 18.533352144719665 14.564612194243852 0.0 -17.14236496214088 0.3378643576222234 0.0
255 1 14.177044352636822 8.616445534008122 0.0 -5.356905019925342 2.4745951525204055 0.0
256 2 3.7212619747973 5.454699813817508 0.0 1.145118605047822 -8.508979811290548 0.0
257 1 18.734116646361123 13.591410763639969 0.0 3.6896574879878523 16.047416924996007 0.0
258 2 15.288502103979194 6.901542534752066 0.0 -8.476102187699825 -7.067831471659539 0.0
259 2 16.098848096779466 10.930913248238138 0.0 -3.478717546321715 -6.97850248144298 0.0
260 2 16.263936230686507 17.122649800644584 0.0 0.3815006885363176 4.467427586191207 0.0
261 2 1.8148189059631374 3.8609645944203748 0.0 -0.9393459691792283 -0.8730671881894969 0.0
262 1 12.780061205122339 13.274665098591534 0.0 -11.063292068193173 5.852848688004105 0.0
263 2 13.313849052439085 8.12785002491794 0.0 -1.3599542600309047 0.15308023239745286 0.0
264 2 15.963137434816675 0.5920311768698562 0.0 -3.996773237722853 0.10629599201693991 0.0
265 1 1.688718177541497 19.120495292356033 0.0 -3.921950788027716 15.739261321013226 0.0
266 2 12.445861320742624 5.336026565332544 0.0 -0.6469035832672215 -6.018976796232633 0.0
267 2 0.11260353008266649 10.854668376784653 0.0 4.722402441777848 8.63774166754192 0.0
268 1 11.26247709758666 18.691876199899493 0.0 7.195447828197583 3.856254759789233 0.0
269 2 7.135065991504146 16.193800577739733 0.0 0.6472548077126512 -6.439289216346836 0.0
270 2 18.500850399300315 0.4655829744018659 0.0 -2.166622868381931 -1.634059021280928 0.0
271 2 16.51365001982903 14.199472142747563 0.0 -4.096777553591743 -1.5284419238498506 0.0
272 1 18.7193591790351 15.334868717820521 0.0 2.4016920134575757 24.184972587068696 0.0
273 2 5.029586238505323 3.92143738067931 0.0 -0.4593721672774212 -0.7734028806462543 0.0
274 2 9.86727657676561 7.145059276373599 0.0 -11.46092921276844 0.9435661678000327 0.0
275 1 18.299541898986625 9.437638766522268 0.0 -9.488961836903208 16.944249844311443 0.0
276 1 15.59614313273602 17.994983405982126 0.0 -0.25973920436507525 2.893927218373247 0.0
277 1 3.165404070210956 0.4595046348704335 0.0 -25.690920891446126 -6.417589915486147 0.0
278 2 5.716478075491425 3.057255981912238 0.0 -17.04185298343898 -6.497878769008569 0.0
279 1 9.681580382593433 12.549843666077285 0.0 6.948086863721401 -12.89461264769943 0.0
280 2 4.545884102910384 4.843863518443937 0.0 0.9529572087672012 -4.2738519911437765 0.0
281 2 4.994389940475549 1.960405632851675 0.0 7.999053725767647 -15.73790986875929 0.0
282 1 19.10540485588372 17.131454986639234 0.0 -3.523582593205987 -0.46627600019752785 0.0
283 2 5.622157954087149 0.488042362431205 0.0 8.008545357370057 3.3304574747734796 0.0
284 2 18.981859015578078 10.697542118926892 0.0 5.665075514718052 -8.507220988792984 0.0
285 2 10.528038973759848 0.43433353570364286 0.0 -5.099054254352268 4.378154427530955 0.0
286 2 15.081448281970031 1.8871917740473818 0.0 0.10022310714360166 -4.527000458666509 0.0
287 1 6.08403736851027 10.843080486661137 0.0 -2.6019419791843363 -11.073182399564473 0.0
288 1 5.642674261524383 10.590898263422506 0.0 14.321552569899865 8.408069508896794 0.0
289 1 3.6194045012270237 0.7312469124014053 0.0 0.9488472076586277 4.308109950319822 0.0
290 1 17.178167062156238 9.31688104618283 0.0 0.4517434939865151 -2.964617116752576 0.0
291 1 0.791652349085808 17.01773344529022 0.0 -12.980523111363476 -0.8636664004154336 0.0
292 2 2.1601089036261603 1.4223173729526888 0.0 4.387027838285605 5.627620169825856 0.0
293 1 0.002156423552140464 13.341418617777304 0.0 0.32551988478010496 6.059089573256608 0.0
294 1 9.950024773083403 5.106609670723283 0.0 13.669341660162905 14.723846931278446 0.0
295 1 6.050012999729116 9.716750853154052 0.0 7.00967850877214 11.257055947354456 0.0
296 1 6.230998271443454 17.517463966624465 0.0 -7.949959882444516 -4.930592798987069 0.0
297 1 9.801285608604404 4.63700875634537 0.0 -18.519270920478508 18.69087300172343 0.0
298 1 3.0425980345807915 2.4737002397037577 0.0 -11.999526876853167 -13.458949319789136 0.0
299 2 7.308097931496662 18.39089539421351 0.0 3.417615385845775 -11.587570523222794 0.0
300 2 16.492262875877724 18.344448225377963 0.0 1.4782945106165857 4.962623455053949 0.0
301 2 18.541248872506785 5.7553141185612855 0.0 -3.22994399741719 7.051760772379061 0.0
302 2 8.491386519731531 8.8079608966674 0.0 12.284793156039923 6.248262247010784 0.0
303 2 11.93130909617452 19.27706906163349 0.0 6.012326996350311 9.612279798397278 0.0
304 2 16.126641092789914 19.102043198921944 0.0 6.322200618435386 -0.0800131771675626 0.0
305 2 3.6855364164102644 1.5941610895160838 0.0 -2.6444653430255194 1.3942125285395428 0.0
306 2 14.43584614956546 6.263416202013903 0.0 3.504149414839251 -4.282871102039598 0.0
307 2 11.504375766647945 11.60260858780701 0.0 -0.0886433421353719 1.164828467479801 0.0
308 1 18.163977609403606 4.9044140979899895 0.0 10.58389204842977 6.18322066724077 0.0
309 2 2.1200934535773404 6.437614984701374 0.0 2.174334637847095 2.093905675160723 0.0
310 1 9.612830643995803 11.449941571274191 0.0 0.17217525607390538 3.3036047731712963 0.0
311 2 2.6703724124927013 13.093102752261803 0.0 -6.027003516945868 22.08304945899431 0.0
312 1 14.669268816327346 16.865094995406096 0.0 20.0494182017029 5.232413913745691 0.0
313 1 9.706299284480728 8.004367958488183 0.0 -5.567321580583694 -1.1298313665490172 0.0
314 2 4.060271182920513 9.092978836492865 0.0 -7.80040355008336 6.204506648048695 0.0
315 2 2.5242638834638487 3.0292883343976773 0.0 -7.96956362701335 10.205224569282421 0.0
316 1 12.07363562026926 13.997919348780723 0.0 15.434514119701563 -2.6608854360718968 0.0
317 2 11.755693721175506 16.549174676248985 0.0 -6.301786843534994 0.2295317238430288 0.0
318 2 0.8003558778723268 11.433272143657732 0.0 -3.461172244636665 -4.1930666392862515 0.0
319 1 17.62112453237994 10.370288553047164 0.0 5.6661959046389585 -7.6860388456443545 0.0
320 2 10.394624243746616 13.918234679109052 0.0 -13.809441208873396 -0.03140133647917018 0.0
321 1 4.519972679576743 13.977096511872231 0.0 11.22755477769828 -8.297700814941496 0.0
322 1 10.903152456649266 5.187500547423917 0.0 6.979838434816267 -23.0059152806674 0.0
323 1 19.244398712414785 0.8606378381392193 0.0 7.99985298980705 6.13031733044566 0.0
324 2 9.246021295259135 18.310836801427403 0.0 -7.915295394402647 4.209681756265626 0.0
325 1 12.859298931844247 17.734071104151145 0.0 -20.061662007731908 -2.0078515235532515 0.0
326 1 12.722672272675155 16.051826034726744 0.0 -9.246231936837182 2.3664608306111257 0.0
327 2 0.2737630728536818 19.220349035178916 0.0 -2.8732922259335787 0.430644833147957 0.0
328 1 11.254762311650612 0.26011558788260586 0.0 2.5635118497296756 10.857753327199472 0.0
329 1 16.52594545895292 12.85705847076355 0.0 -7.087046996508559 -3.5772924606996273 0.0
330 2 14.046703684043289 9.39562891373384 0.0 14.109961267500523 -13.908226124153082 0.0
331 2 4.904448569392288 15.635039897988024 0.0 9.751503515329453 -7.301881001737355 0.0
332 2 1.8740586633532823 7.380107021929821 0.0 -2.512425217297712 4.701066515641107 0.0
333 1 14.847621214621705 9.174656448074092 0.0 12.601726854681932 -7.452218735628166 0.0
334 1 6.679292344918957 11.59175082231168 0.0 6.688049970301484 4.03271672173803 0.0
335 1 1.2762746992773004 6.850442429736849 0.0 15.544365244355674 6.470885435623614 0.0
336 1 6.2247891721557105 13.508808561296874 0.0 -2.8151351391521695 -1.798871533375869 0.0
337 2 10.4658851847695 11.087597545636172 0.0 2.984515581430193 5.178777101228196 0.0