ITEM: TIMESTEP
0
ITEM: NUMBER OF ATOMS
400
ITEM: BOX BOUNDS xy xz yz pp pp pp
0.0 19.7609 0.0
0.0 19.7609 0.0
0.0 10.0 0.0
ITEM: ATOMS id type x y z vx vy vz
1 1 17.55785247509608 12.940780756966621 0.0 0.7085628080162488 -0.7246277838106658 0.0
2 2 1.1928748477784188 3.2137478776673594 0.0 -6.698271356682866 6.19593094835489 0.0
3 1 15.768314058122586 2.2319995747867907 0.0 -4.297651518268242 -20.66156846017697 0.0
4 1 6.714734386115439 15.359064034764366 0.0 -13.012335223661031 19.464905544660184 0.0
5 1 1.6039547688697589 19.592343304480742 0.0 5.919299745982176 2.827335602664792 0.0
6 2 19.568385342938118 17.317600359843457 0.0 11.844856058997637 1.40076001737857 0.0
7 2 7.966262557596595 3.669347233146262 0.0 -8.833691361928576 -11.437850034504349 0.0
8 1 18.34789487041288 1.2309142126773467 0.0 -9.400415988540345 -6.467699719778041 0.0
9 2 7.321914749088429 10.390792197362675 0.0 -7.297509542688355 0.02609744096455828 0.0
10 1 13.712120334172893 19.186036372008545 0.0 14.539609905020486 -4.773796469919425 0.0
11 2 4.5050116881847435 3.2377083791948884 0.0 -1.782855264669691 -2.369159202029624 0.0
12 1 18.37697663377414 9.249376497378448 0.0 6.854509455545638 -17.54673814455393 0.0
13 2 19.30901408751361 3.959720568448454 0.0 -6.116360243037365 1.8639600170260786 0.0
14 2 12.398899205883254 8.386391915914425 0.0 6.01957291118285 2.569934962280152 0.0
15 2 13.654046183748973 11.274104437205079 0.0 4.371274570012551 -3.497761855485426 0.0
16 1 16.604644129765223 8.743580815159012 0.0 3.2731616147179228 -4.728620849162412 0.0
17 1 4.234751770095907 11.255949323018903 0.0 1.4987759991511664 2.4920344536210646 0.0
18 2 13.023451044554886 6.929691275920549 0.0 5.704198876583514 -0.760448531884731 0.0
19 1 0.674948478779934 5.471613698600863 0.0 0.5613117420506483 8.429553705075719 0.0
20 1 2.1604170211977407 18.97683812454263 0.0 1.6040908806447212 -5.362225923497815 0.0
21 1 15.570369240404801 11.691593955921128 0.0 4.22528754890421 1.7974841526083578 0.0
22 2 2.417157409013015 3.793808247144311 0.0 0.9952651251797154 -1.580958797040601 0.0
23 1 5.4367236443905975 1.4196732541758221 0.0 -1.5071500221846283 6.524408840516286 0.0
24 1 5.730282669044121 5.289693062442472 0.0 3.9008814554523457 -3.3962595414398895 0.0
25 1 18.42875408230508 0.36185730147009165 0.0 10.168337951684011 12.425167408252946 0.0
26 1 13.058445779594587 12.000490964941232 0.0 -9.627146201021931 4.054496367252674 0.0
27 1 14.247628486243169 9.044549339476283 0.0 1.9762665170008946 7.756703281656062 0.0
28 1 15.678291321014825 18.16616730427736 0.0 -5.269366956960075 7.839612097859284 0.0
29 2 14.420689946836669 15.447001373257569 0.0 1.5660473100386796 3.086076007315274 0.0
30 1 7.683646245551046 6.247916635326361 0.0 -8.108353722113396 2.913686254426229 0.0
31 1 18.029153101984754 7.977287953454587 0.0 5.943538299215263 7.258925128690234 0.0
32 2 11.95341637596116 3.471305082018954 0.0 -5.381716446439318 -6.216657516423882 0.0
33 1 2.276915313321834 6.015270277986749 0.0 -5.143305746779386 -6.266627470410156 0.0
34 1 8.24178318726194 4.443054095798454 0.0 5.304365464753429 8.565253118805956 0.0
35 1 18.57247223391185 15.879415581096714 0.0 -14.286554531405978 -5.168874143327524 0.0
36 2 18.033431792484375 14.426306838920945 0.0 0.0697402871910156 0.1924514027275393 0.0
37 1 6.536370707804827 11.80127319746999 0.0 -1.292426020121952 -6.643331961108368 0.0
38 2 7.1604787971231225 17.55140642456602 0.0 -3.5422390899801965 -3.206163476190421 0.0
39 2 9.800937055038103 18.54717593076385 0.0 -4.927501534294402 7.76989080304962 0.0
40 1 8.72741897992534 5.072152751140746 0.0 -1.7651801565379146 13.011953116203314 0.0
41 2 12.012690715374625 18.94784849636466 0.0 -4.935911672987568 -0.8016716992298164 0.0
42 1 0.33804125010843805 10.052625282633239 0.0 14.219443526554342 -13.629264982929834 0.0
43 1 6.438369403874542 5.697937284412945 0.0 -18.765877782607095 2.1124622002396154 0.0
44 2 4.7775383684493855 19.053134842421663 0.0 -6.505942530671574 -5.5630084657656695 0.0
45 1 3.065426777456206 6.103947873690449 0.0 -1.4936948968452577 -1.0999964535896234 0.0
46 1 16.666080353930727 3.751247814162219 0.0 9.452775547003919 -14.416609347714534 0.0
47 2 4.662227870393449 4.940202496130839 0.0 -2.9268427227842837 6.87541671894109 0.0
48 2 11.584991327484875 4.7551797867295535 0.0 6.338369067057773 -4.436366756206459 0.0
49 1 8.538298282243142 7.871333509387774 0.0 9.284890199176054 -14.099027923902149 0.0
50 2 14.956523959257334 17.198512531392613 0.0 2.123500124787963 1.6551357995897256 0.0
51 1 9.502483867101702 0.8721344615027192 0.0 0.09107174143375424 -2.81017793940447 0.0
52 2 13.131397715472689 19.66496440605341 0.0 1.431780174603577 -3.950530012870082 0.0
53 2 0.5699947460262051 13.55643807355066 0.0 -4.518299937792148 -5.65042465906773 0.0
54 1 1.1988021174482317 1.888635750457259 0.0 0.8720737070525634 5.937804661650696 0.0
55 1 3.7346180860166687 3.3607422551829185 0.0 1.6520471946810755 6.141199551794399 0.0
56 1 6.041493368737687 4.795538108114823 0.0 -6.00415770781096 -6.175001101869041 0.0
57 1 10.951623313350595 1.5184972553924247 0.0 8.573774809117726 7.6993681766726025 0.0
58 2 10.030493333207344 1.6848792325017474 0.0 13.85221594657808 -2.7965530931862426 0.0
59 2 17.40644258362611 1.1928295441366963 0.0 2.4927627066578797 11.148644550730529 0.0
60 1 9.501472218018835 10.735277221413298 0.0 -10.061560001180892 16.052449532966286 0.0
61 2 12.1097089325645 0.183863971307811 0.0 4.041915939498116 8.034825564231543 0.0
62 1 7.630742830143095 12.178477503712024 0.0 -6.8789051347750325 -5.59925260078641 0.0
63 1 0.2142477501580913 6.675098088338454 0.0 9.90814420210452 -14.311699205767887 0.0
64 2 0.8018338455171368 17.367262193187763 0.0 -2.1385925086256545 -1.600543952815384 0.0
65 1 15.941665198008199 16.801377207940178 0.0 12.46244802013145 -4.036738664865907 0.0
66 2 9.3175105705739 2.2521010941755293 0.0 0.7129480625305185 -10.160188800741704 0.0
67 1 1.730134174293566 2.5077424741351293 0.0 6.968097837333297 -5.012334118984328 0.0
68 2 0.9862783862806118 1.160536421549101 0.0 6.604445824709777 3.6916188786880917 0.0
69 2 10.085673599514376 2.8601402413588928 0.0 4.650999157519779 -3.527566817210416 0.0
70 1 8.853927740333345 8.424806880356204 0.0 9.380989067959215 2.245865702480561 0.0
71 1 16.63731394050981 0.8093566431387579 0.0 3.9758248771075033 -18.73123240145851 0.0
72 1 0.32841990090267076 7.27629032103007 0.0 16.267294461159732 -4.056032220001501 0.0
73 1 12.865191617686566 5.834485529056636 0.0 1.630448160167381 7.316935282136355 0.0
74 1 19.09750499571568 11.07470338433148 0.0 15.17732240231444 -3.4048125900821966 0.0
75 2 12.209952492079166 17.39053408533394 0.0 2.2467800053594345 1.5182083374739817 0.0
76 1 14.172405379536198 6.607086623002023 0.0 3.9619556634065085 -2.8167383166411097 0.0
77 1 11.168792761813133 2.8164310949972737 0.0 -9.578163821474798 8.009197686220547 0.0
78 2 6.181723678891258 12.928176318523537 0.0 3.8918037794075393 -2.4095406229433904 0.0
79 1 13.231381001982365 16.225622791942932 0.0 -1.0822234721289496 -1.184556927724344 0.0
80 2 1.7156260942768347 12.570692058770764 0.0 7.431379756056847 -7.1209854714962 0.0
81 1 1.3919620337946261 4.9376018384151035 0.0 4.473873042048622 -12.882059858172454 0.0
82 2 2.7624017016782414 7.349842373626581 0.0 2.8488824890777042 2.2174201114608114 0.0
83 1 11.255964352371949 13.642061471370766 0.0 -13.207544866941758 -10.323320077229583 0.0
84 2 17.747644302790185 2.938120714991487 0.0 -3.7972974150520282 -2.6267534678723794 0.0
85 1 0.8499954159320813 7.3822735439247955 0.0 -18.934283213720164 7.963058616739807 0.0
86 1 12.41034245324201 9.53032319079632 0.0 2.016289460909844 -5.9979226008125694 0.0
87 1 0.661410827447913 19.286432459487706 0.0 -8.552939227143153 -8.354351759373051 0.0
88 2 10.440226713762936 17.048884455749793 0.0 0.7990114581666077 -11.810960863845176 0.0
89 1 8.978091535229142 15.848803890127177 0.0 -3.7128857444803445 0.7423489751626277 0.0
90 2 0.06015221715620076 4.942390217878292 0.0 0.7850260666903641 7.350659051857453 0.0
91 2 0.21982916711109005 16.37232988841176 0.0 -4.6149129835260325 -5.468765119193101 0.0
92 1 14.145098469266546 12.49206955459356 0.0 12.403972656729538 -8.407516831447746 0.0
93 1 16.125003423091787 8.683523422907115 0.0 -1.6621542099404003 -1.8059092626156092 0.0
94 1 14.584888588808992 10.792881573601946 0.0 -14.730348553962491 -7.993978309757908 0.0
95 2 16.704535146442446 14.229235281498589 0.0 -18.590679861418018 -3.2586087249384303 0.0
96 2 5.366720411344325 4.320488406258505 0.0 -7.772413935191434 2.2330942709332877 0.0
97 1 14.87191236486411 5.080608727283988 0.0 -0.6418163571980585 4.4212477018127165 0.0
98 2 8.94461089247715 15.097925740634363 0.0 1.6345136952583217 6.034336858289311 0.0
99 1 17.30302651779533 19.40767793426992 0.0 -0.24467471799879514 2.0521362191978922 0.0
100 1 12.041696415951805 10.471415234461931 0.0 22.97125779034691 4.047905213227809 0.0
101 1 9.402189536399176 12.138969826515503 0.0 4.670022431817381 3.4055906027187963 0.0
102 1 17.738593911436062 10.039522200315034 0.0 6.821788983171862 -4.401166616594859 0.0
103 1 7.628019344989204 13.301492369395744 0.0 10.492549148531497 5.93152084763428 0.0
104 2 2.3530440833594737 8.330545698015836 0.0 -2.9154694164136763 1.7470614424380506 0.0
105 1 6.144159307544179 17.15534472692479 0.0 -12.212978201567507 -12.587571445833406 0.0
106 1 8.860638304249784 12.617140748469366 0.0 3.104479232361968 3.5879727023317174 0.0
107 1 14.811099201887508 5.67256263412599 0.0 7.139830935100827 -2.5181414720761537 0.0
108 2 17.899141680518508 1.8491781049705267 0.0 -3.3123553389330733 7.589178666135922 0.0
109 1 0.840937063081112 8.037090795042467 0.0 13.783329311836365 -1.1563017876821104 0.0
110 2 2.198340372201488 5.2866201537260284 0.0 9.152857519370961 6.605273628464969 0.0
111 1 16.55082315191726 8.310203593528568 0.0 -8.617807780114468 -5.816613602406239 0.0
112 1 5.829535479504815 3.1639628836652443 0.0 -8.388361926600055 -11.326584898506864 0.0
113 1 18.852434359689497 13.953357541603319 0.0 -2.944452631567183 -6.959072818972041 0.0
114 1 1.1205542380095703 9.614620034665458 0.0 -2.133237652957529 -5.171160237036315 0.0
115 1 16.653202728873104 19.579698364646216 0.0 -8.662006774105684 -2.5529146727708656 0.0
116 2 12.050554338044236 14.1162650103316 0.0 0.6123728004772291 4.39672927112235 0.0
117 2 8.261387229247898 10.83851309603382 0.0 1.1398165957615343 -6.194327931802505 0.0
118 1 3.8552247479527395 5.555183982749897 0.0 9.699800741601031 -5.102542605643117 0.0
119 1 6.202658604006012 4.197797621401562 0.0 -4.750438501954723 -0.6157823477369562 0.0
120 2 4.516480507031582 10.303867762605266 0.0 -2.3567060083368028 2.4049940860484287 0.0
121 2 5.804748237777151 17.993324750669426 0.0 -4.937770924063487 6.850633175071915 0.0
122 1 8.605754626856324 12.137820387558262 0.0 -3.263251267646698 -3.537313345872331 0.0
123 2 5.982557673888139 7.952448137716979 0.0 -7.662259380255239 0.8937298106292529 0.0
124 2 6.039048375119636 2.360306215686519 0.0 -2.626930203404682 1.6985210983709278 0.0
125 2 10.67242284670182 6.793113580380657 0.0 -2.0849225444361235 -7.726686236632881 0.0
126 2 1.9894964716376484 18.106247704115372 0.0 9.385972659125125 -8.894124970581604 0.0
127 2 11.150415678573143 3.8801787894165805 0.0 -9.42421011294593 -9.61762699938735 0.0
128 2 11.691907727875073 7.455617931268401 0.0 1.168984894763756 1.6057425710936553 0.0
129 2 3.6163989654180138 6.782207156829438 0.0 3.081141820705557 -5.187390108391657 0.0
130 1 18.216738281340287 9.965333571425495 0.0 -19.618032605349573 -7.9260050304513125 0.0
131 1 6.856551822848319 1.3106760515337341 0.0 -13.525535330517819 -15.662538656439013 0.0
132 1 7.0173849404948845 12.723046208618513 0.0 -24.596541886566577 26.14895130703958 0.0
133 2 3.097845331707138 9.925717416602891 0.0 1.9906819659185933 -1.1015905372113444 0.0
134 2 6.709010757620516 18.384863679423805 0.0 4.002624029038802 5.317794377603739 0.0
135 2 14.57642695579995 2.8721196665775275 0.0 -2.163500300511933 -0.8593716889260191 0.0
136 1 3.89971292052097 11.559265769883128 0.0 3.664857622619358 -0.010470803799971215 0.0
137 2 6.2880825705200545 10.638910085952434 0.0 2.1167864929346525 6.901295352558535 0.0
138 1 18.845029709489527 1.0977158590346665 0.0 -12.713964808853724 0.6748550619609098 0.0
139 1 6.191632901186003 15.724346066648058 0.0 10.658762323665265 -10.347511758791379 0.0
140 2 8.605423876139827 5.991247090536208 0.0 -6.344304582143995 0.4395216306526115 0.0
141 2 2.889513055890068 2.9504588152834454 0.0 7.726218935745258 -2.5498550516988816 0.0
142 2 8.105123419704805 18.311325195940324 0.0 2.1510062721758456 -0.19472225745085298 0.0
143 1 2.1137040752259364 6.614594919873819 0.0 -10.786290883440806 -1.2424477423322668 0.0
144 1 16.05663660110349 3.8504945428636095 0.0 -17.925001890741253 8.375453293464204 0.0
145 1 2.552288063251544 11.512851157610505 0.0 -4.486831158506878 3.644392422637154 0.0
146 2 13.477482893143598 1.5574733735170896 0.0 -5.81232648027975 6.293444659841402 0.0
147 2 11.103231947113867 16.285253958753504 0.0 0.700805305861662 2.3140202140840054 0.0
148 2 1.8949070450984402 17.13607109290524 0.0 12.5988022440017 4.735816205827521 0.0
149 2 5.6686652481652695 11.25299555405889 0.0 -7.410077479324874 -0.7249419239725992 0.0
150 2 14.986644353587494 7.3388077197529515 0.0 -5.814464486246609 -3.3596096418191608 0.0
151 2 14.925125590834185 18.540373241601106 0.0 -1.9810782119606876 -0.9740554063078382 0.0
152 1 18.2768015305588 15.209206492741496 0.0 -2.7279400908867912 -9.233477703163283 0.0
153 2 15.867035350771173 4.934295320771919 0.0 -5.3010772515284525 -5.492190678221792 0.0
154 2 17.327440738838494 10.823494430265079 0.0 -6.830275734672186 6.281521163048506 0.0
155 1 16.312962878861594 3.177608364058249 0.0 6.681479153481982 -13.9143539203699 0.0
156 1 1.4509654707387032 13.445354537166143 0.0 2.3046406012300213 7.695012294277551 0.0
157 2 19.070836930260047 8.973626252307584 0.0 -8.922184909151454 0.23603250950424165 0.0
158 2 5.234188556000954 6.606991660010621 0.0 2.8462917577890376 -3.6404401435951526 0.0
159 1 6.345672213432017 5.198527940977833 0.0 -10.528861158389295 0.4009559870349668 0.0
160 1 8.842869607222307 1.3880053839476052 0.0 16.69732184810337 -3.0852426575710785 0.0
161 2 11.31646215213446 9.937532136564014 0.0 -3.420624989421737 3.280696694350367 0.0
162 1 13.328678816177014 17.57456120323383 0.0 -8.22916264401054 -4.909043540313694 0.0
163 2 19.28453039540377 6.0612698289797935 0.0 -7.032287324213767 7.329387369736035 0.0
164 1 5.0137408061630735 8.381485208173341 0.0 4.2571645606212005 -2.1206601192000822 0.0
165 2 10.12830989510484 13.352729684291008 0.0 0.15156078509934853 9.34221110297309 0.0
166 1 18.926960774501964 14.624671375319362 0.0 -2.531160776641543 10.508239547826689 0.0
167 2 5.205799769952677 13.343929825064738 0.0 -7.644214967530222 -3.8592453175582886 0.0
168 1 17.064023741221533 0.4762911272899428 0.0 -5.892213401832433 20.064673066321227 0.0
169 1 14.907763350375166 8.407781228159244 0.0 0.08482773448782639 11.148693643765895 0.0
170 1 19.738285815334024 8.347678468765423 0.0 -8.307625510292668 8.084321244687258 0.0
171 1 6.918672305170449 4.224632465627358 0.0 -19.82477556604246 0.4354946949906033 0.0
172 1 13.841228345152771 16.279215558757834 0.0 1.519222557743914 6.995075421476355 0.0
173 2 19.104270597562795 9.935301080696844 0.0 0.3617502729811967 4.669082057484754 0.0
174 1 8.289682718441076 7.453860749357293 0.0 4.189741929710476 -8.651388561837495 0.0
175 2 4.669881268602556 12.35089764425627 0.0 -3.280124286027613 -2.2322582830090716 0.0
176 2 0.9747582845273457 11.502994952576282 0.0 -2.6344028814198346 8.241569165828041 0.0
177 1 10.595968720568314 14.5673054011267 0.0 1.8136247814636137 5.145944219821121 0.0
178 1 14.326186447107329 3.8996197943832156 0.0 0.2492609203520832 -11.759150848128467 0.0
179 2 10.985532792554766 10.821448722779927 0.0 4.886055446339905 0.39554981930154093 0.0
180 2 15.13054645042324 12.875608042492978 0.0 -4.1688387983605155 -5.892201263578749 0.0
181 1 18.799529575761422 11.504335654740943 0.0 -5.650280983042855 -10.011881438336115 0.0
182 2 18.32024021076101 11.011247579254249 0.0 0.10233023888665788 -0.5163715098275108 0.0
183 1 1.284527857649641 10.58802294766888 0.0 -6.214832374740258 -6.043866026279338 0.0
184 1 0.6661980700661353 10.509119035467636 0.0 -3.959686012024035 3.183108567703899 0.0
185 1 13.633727174281228 13.079265916456594 0.0 -9.358723195090404 -7.8043946555911665 0.0
186 1 19.05661794694217 7.15074563659988 0.0 1.3347097599700422 -24.090204552779294 0.0
187 1 17.030893569843336 7.119765643016013 0.0 1.14972620526701 4.151816467983744 0.0
188 1 4.019333199372974 1.7741945441839975 0.0 6.0431782429164365 4.962656482269392 0.0
189 2 19.641982212733605 1.4733315390945914 0.0 1.2323815267096347 7.665868519161398 0.0
190 1 14.073966945014993 19.59603645822186 0.0 -3.7859129857217027 -9.812154258850834 0.0
191 2 14.7108726886482 0.572023922497219 0.0 -5.390144790738642 6.780936913436262 0.0
192 2 5.502215138367546 19.655426118531786 0.0 4.399496775053863 0.5261353434715469 0.0
193 1 16.786323445238114 16.986070653958315 0.0 -5.989645786342684 2.3380340916186935 0.0
194 1 4.350126585217352 6.100158329480873 0.0 2.611483124404772 -8.410431061645461 0.0
195 2 1.8815076726613384 1.3832952229393225 0.0 -12.315807807886738 -1.9614129436197096 0.0
196 1 15.078224245274063 10.824293352094278 0.0 7.079885679973928 -5.499964315033105 0.0
197 1 17.312529856539086 13.558098501685684 0.0 10.4570190519373 -4.641987523325122 0.0
198 2 17.31806869728185 15.059724736539504 0.0 -10.664581663786272 0.0547664461397507 0.0
199 2 12.082328319893112 11.408534521774522 0.0 4.220778088696978 10.083433356757032 0.0
200 1 0.7875306194521655 12.335916170783836 0.0 -3.9941687164422492 5.276495554858832 0.0
201 2 0.35984570867858434 0.37860185447818717 0.0 -2.4350207151754044 -5.852043677048829 0.0
202 2 1.7971106360395344 11.69930244876757 0.0 13.070113479543433 -13.122321160291108 0.0
203 2 12.783457654048997 15.185234162800352 0.0 -15.052325871060503 4.100820063155177 0.0
204 1 14.353302940271057 8.370432801082865 0.0 6.441650763573068 5.087999040532972 0.0
205 2 10.399352672769234 9.573383869241015 0.0 5.925619443346919 10.233325043641761 0.0
206 1 14.939021023464145 19.33350076395913 0.0 7.224933857813457 7.64221335963059 0.0
207 1 5.054589008720087 2.3799926515520857 0.0 0.14394165267746506 5.025516159703579 0.0
208 2 6.838622400241541 7.42304120310127 0.0 4.086839796926068 -0.21879908161121595 0.0
209 1 3.3239864946066855 5.585358599794311 0.0 -9.223249496619598 -5.42221083582031 0.0
210 1 4.78131638365141 0.31411202819853273 0.0 9.582565426435343 -0.534382429254491 0.0
211 1 2.662093685622138 1.4806914952972003 0.0 -8.614350508723152 -4.4116747005075485 0.0
212 1 9.04200895108555 4.033334742681478 0.0 -5.999767466153553 -10.394475388927312 0.0
213 2 3.4810243575184625 4.205292709247211 0.0 -0.19804859345859951 6.349412195060147 0.0
214 1 9.716120115969249 12.694811833388394 0.0 -0.6127553089532155 1.4048319778995269 0.0
215 1 17.237640417908224 17.45460998591414 0.0 -1.5106305189172928 -0.3471230391043924 0.0
216 1 16.467198466045552 11.78315616969687 0.0 -0.2763943180048201 10.624887803085166 0.0
217 1 12.988512788424591 12.747364871707214 0.0 -6.044109518013844 -3.350939210006489 0.0
218 1 6.9114521706825585 6.646962397807342 0.0 -1.3817669154208514 4.931346661645422 0.0
219 1 18.892496191993068 4.745025574532048 0.0 -3.83232229876113 11.780956185270691 0.0
220 1 2.470077762636417 13.51618750313152 0.0 -3.9057592801586125 0.1517972596026514 0.0
221 2 4.732810798373012 15.89844173475502 0.0 0.5975792371377329 -12.235921233155677 0.0
222 2 7.298749671480526 8.397441861025262 0.0 2.2821247482926603 5.562619734793047 0.0
223 1 11.850665859594312 18.082304982822937 0.0 11.193387212134386 -9.245104609425264 0.0
224 1 18.256007502404973 6.80256919197967 0.0 -2.7945106278027825 0.0343709223751732 0.0
225 1 3.589217782511179 1.4024403435518042 0.0 -6.457754569754787 7.220715736744177 0.0
226 1 15.242850845504876 4.3056062544672 0.0 20.30676748294675 2.7775885374329867 0.0
227 1 13.972947104960282 7.445000331678561 0.0 -20.272493536319406 14.289098140646674 0.0
228 1 17.52261051857453 0.24936239243579836 0.0 6.61807793103237 12.108501655461067 0.0
229 2 10.303408420548056 3.7024908832317407 0.0 6.9945831572378 -2.0571772374413912 0.0
230 1 16.414481293750885 1.2354511722361605 0.0 -13.217328193735856 20.065461828947715 0.0
231 1 6.874565360718996 1.7685051793037168 0.0 -0.3055097102502612 -7.981832426766638 0.0
232 2 11.844443858989198 1.9925795418533168 0.0 3.834905598034628 4.459883414709211 0.0
233 2 6.378661361801037 14.551546187561813 0.0 -0.6463534040167351 -6.331022171694887 0.0
234 1 0.022347419512147207 7.689249924453778 0.0 -7.0756934226380634 -0.5840848298726967 0.0
235 1 16.234635931028237 10.70288906504533 0.0 3.286810386525536 -0.5006915840444238 0.0
236 1 2.8193128805893 6.527356176809621 0.0 10.566424070455074 0.5155707296885316 0.0
237 2 16.20451929725759 17.548700493768745 0.0 1.1866679057818452 -1.0233926756276384 0.0
238 2 1.7131045683697066 4.174256013362482 0.0 0.8668387632275637 -8.077897334970611 0.0
239 1 8.980614767742832 0.6616828234132597 0.0 7.4663460591507 8.213418612106606 0.0
240 1 7.552741935076683 11.448711822114028 0.0 6.082593531418327 2.5959003287407336 0.0
241 1 16.20865582127803 12.212455446434967 0.0 -1.7748750609868627 6.54961188121624 0.0
242 2 3.316704824556581 12.325296820486619 0.0 -4.317809290726257 13.076836159369389 0.0
243 1 11.856450943347818 0.9814277980016302 0.0 -17.683110866417792 -5.0317797709201555 0.0
244 2 12.71594237259722 4.368607663299567 0.0 -0.7171019649070276 -4.652900780784441 0.0
245 2 10.702519852235799 7.738001733034436 0.0 2.404798363427198 -4.533733845135505 0.0
246 2 2.639226224442813 0.07553166432628998 0.0 -11.234548002829468 2.2753970233373235 0.0
247 1 19.372413599050088 14.077049121653062 0.0 0.08950978573531966 9.896215798518051 0.0
248 2 13.781485020159183 4.50152653374449 0.0 -6.991451490385188 -4.263804097984467 0.0
249 2 11.244757043470392 12.039077471976697 0.0 -6.595339910842357 5.024523606021257 0.0
250 2 12.818063604574801 10.761792505423136 0.0 -6.627184946614856 9.311487202857501 0.0
251 1 10.251781724401566 14.205411293714075 0.0 -2.671261569363156 10.270581401721694 0.0
252 2 0.4920779183496272 15.465707244911476 0.0 2.3576042647571716 -4.494626539853999 0.0
253 1 15.820262864731706 15.498129230586288 0.0 -4.431878307111377 -13.416634723518081 0.0
254 1 13.346220627612679 8.730825087897871 0.0 -3.707384058355436 -4.117118998916397 0.0
255 1 8.631293150293304 6.75939447303953 0.0 7.5103662764872965 -1.2419363534896055 0.0
256 2 9.399792409405723 16.830203450367932 0.0 -9.529717896135104 5.5409336106103515 0.0
257 1 2.301551320648891 9.622459946647153 0.0 3.8319913976570525 -5.174001594804063 0.0
258 2 18.121506999886304 6.011160884104674 0.0 7.813288041874395 -7.9075753920295035 0.0
259 2 4.3120781616754496 16.802870521088014 0.0 8.130733541482245 5.733764829600278 0.0
260 2 0.7446273196178104 4.29478049569391 0.0 -7.382850165248178 -1.5391562269206076 0.0
261 2 7.63428956947692 0.6576437895671531 0.0 -3.591198774528955 -1.4081608455262424 0.0
262 1 11.556953849684856 9.23632428933851 0.0 -6.77139466087578 -12.04008019003548 0.0
263 2 9.94989137376711 8.736153017326403 0.0 0.6245465589061946 -3.9766270588432118 0.0
264 2 18.12692146808782 16.739327204097915 0.0 -0.07580581299527861 -8.984739777144076 0.0
265 1 9.472647515275012 11.495822780933972 0.0 -6.048352261705613 -10.86404839723301 0.0
266 2 1.0557670336582905 14.279576466727589 0.0 8.685655117995411 -6.825476422092091 0.0
267 2 5.454289168327646 16.830455074107583 0.0 6.3486240564609036 13.225021609904193 0.0
268 1 8.532823816461674 1.8211873985078457 0.0 0.37891308790349787 1.493402307314309 0.0
269 2 12.93166281621768 13.620758825337873 0.0 11.056161980209016 9.175333513910529 0.0
270 2 14.73483823680638 13.909347527427991 0.0 12.138067671578787 -2.520073263170369 0.0
271 2 11.906506755834828 6.573926834778901 0.0 -4.669404916504802 5.419803660280295 0.0
272 1 16.513997582851708 15.92985638852113 0.0 -3.9790065262073777 1.2627514909350581 0.0
273 2 16.64212036783612 18.248846962475618 0.0 12.616507078183037 0.4696130885728807 0.0
274 2 3.5759791845833098 13.606853173249897 0.0 -10.10029683508214 -5.6393819985972105 0.0
275 1 14.358066383775924 16.657879726713237 0.0 0.8942953534390262 -4.678269856691823 0.0
276 1 18.381444826106623 12.2036347192158 0.0 -10.460446941354874 0.0035177147440632714 0.0
277 1 9.032228070964525 13.26286475976266 0.0 1.6441340130139814 -12.165984829684897 0.0
278 2 8.348028618033148 2.8384835919247378 0.0 9.692264010988971 -2.8589823159210703 0.0
279 1 16.9517779572052 13.264404034934234 0.0 -0.11937783020997733 -4.544043204249692 0.0
280 2 10.145196195369993 4.657739129515041 0.0 2.378048729673335 -12.134033675982232 0.0
281 2 3.575811928089154 8.155570529074858 0.0 7.767107055203031 2.089247700515667 0.0
282 1 12.47438321708648 12.12040122079375 0.0 9.131886452354701 9.903754665083756 0.0
283 2 10.530768658511011 19.21043425339378 0.0 3.735109248892736 6.768988885509364 0.0
284 2 1.9972378263449073 14.406531707474603 0.0 -9.44574593434875 -8.287887518162867 0.0
285 2 10.249646741428267 11.986002968489009 0.0 3.4155678772388365 -9.366728138615187 0.0
286 2 4.402225951022586 1.0820323284440072 0.0 -4.381604632600139 8.422785729804673 0.0
287 1 13.649529304196735 10.301733359274012 0.0 12.926199360360059 -3.216498688295638 0.0
288 1 2.0060191153440243 13.417105672947017 0.0 -6.12942029283378 -0.9805644017113799 0.0
289 1 3.7819460672759218 15.677398562132952 0.0 -6.938840384845481 10.782612904837363 0.0
290 1 7.591351507916131 7.198312018645999 0.0 6.691614953447228 7.037093654652383 0.0
291 1 8.06777517079061 9.133751352277972 0.0 2.7769678072475648 -6.287014401858174 0.0
292 2 13.391619378929073 2.924259339334024 0.0 -8.001816922085034 7.724662845262733 0.0
293 1 7.1118348078060585 11.370972737497844 0.0 -1.1379220113789223 -1.6426503854715024 0.0
294 1 8.930359456310097 19.350355538944868 0.0 -10.502552295259425 -18.356011684629614 0.0
295 1 8.279551493498614 1.1450170301265377 0.0 -8.70273166163824 -10.406780046037845 0.0
296 1 0.15753253232117176 11.354257212244073 0.0 13.855099935650427 10.289007492168862 0.0
297 1 5.457838663626336 7.313576177781136 0.0 0.5504393903930938 2.394137560443495 0.0
298 1 14.652598071511312 9.691980444275607 0.0 15.747091039157402 -7.884238038747677 0.0
299 2 9.590215171976613 0.024595059991119068 0.0 -7.195677084352156 -7.651518878126183 0.0
300 2 4.1186261559806026 18.49012950934802 0.0 -0.0006427670652307296 -2.64981300456377 0.0
301 2 3.4103506038759095 2.2850053483112234 0.0 6.808431413249314 3.1649512617276914 0.0
302 2 0.10679019869919235 3.180467869627583 0.0 2.015390725456886 -4.58158802074739 0.0
303 2 6.491476118990422 0.6155797023338567 0.0 10.269695325681276 -4.218123492739236 0.0
304 2 10.280712822568947 16.097864078853977 0.0 3.2341465486767684 -6.206947704425586 0.0
305 2 1.5267381889374185 6.107997944276828 0.0 -2.088908070392615 -6.104810518994549 0.0
306 2 5.849150751709985 9.159143281331612 0.0 0.3590685974690164 10.084315956004493 0.0
307 2 7.6151146071886515 2.28631847443438 0.0 4.647567846822292 5.675032385246619 0.0
308 1 2.353861142914386 2.419895235757544 0.0 -7.554003014408086 -13.413511468183955 0.0
309 2 13.600374340364086 0.6764682793538377 0.0 4.783359702581965 -3.305409980544674 0.0
310 1 5.012383382979347 17.882572936747973 0.0 7.857000700357198 -5.060447959793119 0.0
311 2 7.997283479580626 16.43753803968953 0.0 0.19507346505464007 -0.19992032021322628 0.0
312 1 5.597988649914254 0.8289399426679668 0.0 7.846076813579695 -8.04727891204644 0.0
313 1 15.186544828857349 14.866379354868844 0.0 -10.90395033486182 6.61948140042606 0.0
314 2 0.19656267258588428 18.49137127045 0.0 2.970632644724077 1.253833279492199 0.0
315 2 7.017010306174873 14.053564266357032 0.0 10.388483457519387 -4.461639460309089 0.0
316 1 10.074712833524428 14.851406163064935 0.0 6.781084953539022 2.7821101214442066 0.0
317 2 18.014749652718407 18.590205061801175 0.0 -1.008336537670967 2.9786075435972155 0.0
318 2 9.783627242298673 6.289995829357904 0.0 0.5017272338371013 6.5622790973861855 0.0
319 1 13.490961209532873 18.16353870365976 0.0 5.817268540000318 24.250743345231484 0.0
320 2 4.091003883204713 14.732307313099525 0.0 -4.124528579007464 -1.649990061026592 0.0
321 1 14.188160819300606 10.50718567017187 0.0 -6.726980235033792 -8.228519710334066 0.0
322 1 0.05706904326498937 11.908580663472664 0.0 -2.632522625672424 -7.875883524408273 0.0
323 1 17.496065757649625 8.216823076239436 0.0 7.20558541784536 14.26753121093354 0.0
324 2 3.7025044269774767 0.4019943596337298 0.0 -5.883105480150123 2.2082300778633104 0.0
325 1 9.613890537433656 9.743424778364433 0.0 -8.380121644235343 22.01945298899174 0.0
326 1 12.996037802596069 16.900532842770154 0.0 7.0798495125515855 7.763199559249385 0.0
327 2 7.865619235795876 9.872277030683819 0.0 12.048187265585893 -3.870718248845301 0.0
328 1 8.430403560279604 19.676322738701575 0.0 11.451483598797523 6.244962554051258 0.0
329 1 7.32622358846716 15.311990006132335 0.0 7.242234594966803 -17.46136382930162 0.0
330 2 7.227377884768676 19.19732420790374 0.0 9.75342400279241 8.460675835724048 0.0
331 2 16.989877085478334 2.0078155768148145 0.0 -6.105633412486474 11.82603097582903 0.0
332 2 0.33628397310541364 9.063257105473463 0.0 1.0981720861322433 4.140102985148111 0.0
333 1 2.644138638756496 18.65328704247861 0.0 -10.609768563324074 -1.7013069636950295 0.0
334 1 18.92534476131888 8.04815878472625 0.0 -2.0516131895041703 12.9240589522499 0.0
335 1 2.5402523904018026 12.482886618080498 0.0 2.630097020397915 -10.983184998245285 0.0
336 1 7.015717803170745 12.112282669050177 0.0 15.34005048181972 0.1401820865130043 0.0