ITEM: TIMESTEP
0
ITEM: NUMBER OF ATOMS
400
ITEM: BOX BOUNDS xy xz yz pp pp pp
0.0 19.7609 0.0
0.0 19.7609 0.0
0.0 10.0 0.0
ITEM: ATOMS id type x y z vx vy vz
1 1 7.861506022981587 11.180820871912818 0.0 8.057515113788474 -2.3521722952236925 0.0
2 2 12.42727625898084 13.551999311194 0.0 0.29719135556535575 -2.6877094700930657 0.0
3 1 14.358303641602099 3.305619293746694 0.0 6.779740788600056 -0.6281261974158677 0.0
4 1 18.970380719216145 3.0039051064381397 0.0 -5.672174396780523 -15.31642041564589 0.0
5 1 16.267796609972144 0.5646539695394318 0.0 10.287145828891903 2.066509729746404 0.0
6 2 3.8983532006203454 10.519644585652836 0.0 16.933760584708004 -2.55173987409081 0.0
7 2 16.49062213008466 16.65893946472274 0.0 2.912982700431971 -9.706737684494566 0.0
8 1 1.9452647331903083 6.5305960106012 0.0 -21.613271713321684 1.6001642148157555 0.0
9 2 9.948086878818245 11.857815399085608 0.0 -14.040162316881675 -3.0893848759738938 0.0
10 1 0.8187206152731616 0.944237263407838 0.0 1.680435485022692 4.105568752257858 0.0
11 2 8.41956366178032 4.005427717899566 0.0 -7.2316146539135655 -1.1733235799607595 0.0
12 1 11.657557834136362 4.3772850709258995 0.0 7.888270724522011 10.960705804170335 0.0
13 2 7.2483547816241405 9.42030337108361 0.0 9.136950653880575 0.6822336221765833 0.0
14 2 15.08825584297575 6.883118291420583 0.0 0.1550387173733763 2.063349155371864 0.0
15 2 15.653163913320059 4.34392379778863 0.0 5.079248621487831 0.5826145632568758 0.0
16 1 19.73544824000936 12.034552750048457 0.0 20.83727916655557 -1.282272377992201 0.0
17 1 13.97502420465327 2.5928907009067492 0.0 -4.121171842080545 10.383004480004692 0.0
18 2 15.126067910241224 14.804764822521017 0.0 1.028641428140726 -11.847027479474571 0.0
19 1 5.452911824047264 4.597986083218389 0.0 20.1095610504145 5.488784419617684 0.0
20 1 0.875069213327987 11.126354750779056 0.0 -0.05283306325895145 -17.39071743256943 0.0
21 1 6.298416054320439 7.896738941970907 0.0 -0.25089157096947884 7.461908819149932 0.0
22 2 18.68393861290191 3.740284335827191 0.0 -3.853271922269195 5.322320976656395 0.0
23 1 14.740537668207557 17.477866225565343 0.0 -7.3409793331114885 7.066651675137838 0.0
24 1 13.483606186397873 19.35964552971332 0.0 1.504917724702378 -1.0054272559221928 0.0
25 1 18.252072224054395 10.560957948813478 0.0 -1.7959623785386414 6.157618466719969 0.0
26 1 6.7430014571502594 15.76326299610407 0.0 4.162681415828704 15.595777915728577 0.0
27 1 17.697446844927203 6.218240098541777 0.0 1.3023566695462654 -3.317549634552806 0.0
28 1 4.564059438389521 4.237207562323188 0.0 0.31578713411837395 -1.314993600200675 0.0
29 2 6.084367035879858 10.453561577273428 0.0 -3.8941994136026796 -2.1315253628938273 0.0
30 1 7.245624784617381 15.275391752589035 0.0 18.94633250276504 5.834073034339135 0.0
31 1 2.4610248493959457 4.245617978123228 0.0 -1.4286025268667115 9.987470348409031 0.0
32 2 14.993006339103932 18.39317599167826 0.0 3.06603795144735 0.31711472400806573 0.0
33 1 2.68485719861642 3.0337505496992017 0.0 -5.041298586205101 -4.626914434979104 0.0
34 1 10.41835251036166 7.1118991223560615 0.0 6.5007852546658365 -8.07906969613964 0.0
35 1 19.655104566534597 4.194644414067498 0.0 0.19752720810758306 -9.207045220586178 0.0
36 2 1.9379366772308244 19.496417264557667 0.0 -4.456130062119669 -0.7233830111628109 0.0
37 1 1.0227911136862327 2.9403858463785353 0.0 -1.9931289028076344 1.6589087360807513 0.0
38 2 7.956745066957412 9.841135354683392 0.0 5.735224846726298 5.03518546472278 0.0
39 2 7.132877722448672 16.673927857486262 0.0 -7.616375342613891 -0.15351546953563525 0.0
40 1 0.3234281547789408 12.825417617256152 0.0 -8.809934200090217 13.514913181260397 0.0
41 2 16.81201398213742 1.9714965666447681 0.0 6.719276827512174 -2.208744517312527 0.0
42 1 17.970840133587295 19.62891002321699 0.0 7.289096378998129 6.549669587483059 0.0
43 1 7.792299045275049 5.930964226079958 0.0 15.304332313634534 20.464475826722698 0.0
44 2 19.04234636396579 11.428961653924288 0.0 2.1484453991236436 -2.7664391186359194 0.0
45 1 18.53974743032731 4.877310100611451 0.0 -3.342108455767029 -15.252490067119288 0.0
46 1 6.754542410623958 7.616167014251647 0.0 0.49517815997115083 4.112377373122076 0.0
47 2 19.22675406537716 0.6961045426213567 0.0 3.5565701615986023 10.517125324043628 0.0
48 2 4.347176377997554 3.467971672555601 0.0 8.343636705212532 -5.4035758833150505 0.0
49 1 2.4517462535350005 12.533883362065781 0.0 8.221842746066898 -1.0117672292898336 0.0
50 2 8.33274128232063 9.049955706637729 0.0 -5.260532737242529 -2.180272183511688 0.0
51 1 11.610050361379662 16.25744208187303 0.0 12.421912942185234 -6.512795872629982 0.0
52 2 4.589963867649173 12.454466198902802 0.0 9.863746787374094 -6.866709462716129 0.0
53 2 11.930734241768585 17.088513390458132 0.0 4.613474899023567 -0.9563443151235965 0.0
54 1 4.503573161796794 0.49968302323103136 0.0 8.540483236320103 11.480178134163719 0.0
55 1 8.776911512320657 17.133569755649972 0.0 -4.0485341047458 -23.56046673532987 0.0
56 1 4.000358427878753 9.511896180286726 0.0 -3.993032358129468 -2.9884688737373115 0.0
57 1 17.918524039324932 4.753142385146908 0.0 -10.799986245459493 -8.452528698799085 0.0
58 2 5.612767919150368 8.591924645447325 0.0 4.733682008107603 -1.0766792253092083 0.0
59 2 18.443302245854564 7.780724949843379 0.0 -0.5794560870839572 -5.145896915688824 0.0
60 1 8.384723864309803 11.566435395291208 0.0 -0.6550239841721421 0.294312139598862 0.0
61 2 19.324687914204887 7.088674853514603 0.0 -7.090605224891218 0.3080003817276154 0.0
62 1 12.23836327870791 9.873962149078963 0.0 -8.494188825436874 1.083256061171168 0.0
63 1 3.8201646917235115 15.91633299473011 0.0 0.952067140674752 7.9983148056382545 0.0
64 2 7.3859035716149055 11.970118117859561 0.0 2.6407317213276267 -7.887381158164225 0.0
65 1 4.288036098713375 7.5023074021852905 0.0 6.6635390971011095 -18.838463251227978 0.0
66 2 13.961602693554836 4.050256598044354 0.0 -4.034085805318713 -1.8525685533189031 0.0
67 1 8.976858321490964 19.19188956083627 0.0 -12.09949668001237 -1.1854652234089837 0.0
68 2 18.878223275329386 14.436387674801706 0.0 6.519225484853336 9.284744365566034 0.0
69 2 5.761255178131147 5.615816604074992 0.0 1.1182551459717947 -3.65135852070811 0.0
70 1 12.056218723019876 6.480839226739546 0.0 -1.2832844685047167 2.164609497521833 0.0
71 1 10.9291855890104 9.084436398969437 0.0 -2.291474382693749 -12.29874914824642 0.0
72 1 9.061329211103908 14.263960778959452 0.0 18.240943241317634 15.139313832858395 0.0
73 1 10.755094033496885 3.556273323612028 0.0 -1.18723667990393 10.792247012450646 0.0
74 1 2.5909920849203942 16.659233311454262 0.0 -1.7093534589899853 -3.59852303866457 0.0
75 2 14.517460148721053 12.899219585156851 0.0 -5.520879833699148 -2.482797471322597 0.0
76 1 9.022884497498834 8.748993312109231 0.0 15.99169182839674 2.0430478511610453 0.0
77 1 5.3274264035349255 7.5752712691366275 0.0 1.4956098372364017 5.587653694923665 0.0
78 2 7.408801138364313 12.84416961069952 0.0 -5.659538994558466 -2.7977809548430113 0.0
79 1 2.258106224400773 17.568911389078686 0.0 22.832724985239093 -3.495399763116279 0.0
80 2 4.084008043567693 17.740333506473178 0.0 5.487012496220593 0.21093485365793965 0.0
81 1 4.760855405490441 8.466690267101457 0.0 7.491554144858812 3.1164336369643104 0.0
82 2 16.86825118915923 17.791954658982934 0.0 -1.6200713569967762 -12.992639576732218 0.0
83 1 18.665060375973425 1.4278683300540878 0.0 -5.722828077052 5.118800482350473 0.0
84 2 4.129499140387829 18.609624461142943 0.0 4.0186391105912 7.054509124465559 0.0
85 1 19.15625142723756 1.9735344235892567 0.0 9.606005430788173 -13.41749601514491 0.0
86 1 17.96482473355243 19.077422025627673 0.0 -12.234218368757782 -21.121278862792366 0.0
87 1 9.796801160872338 17.151082893910466 0.0 1.2403931278253695 -9.00316678949472 0.0
88 2 13.492510542057769 14.78220672132212 0.0 -4.636373720579845 9.688406442981153 0.0
89 1 3.5954728141303804 12.014008970397532 0.0 -2.070637736238379 -8.215626559314893 0.0
90 2 19.35826304586057 4.8981245014482555 0.0 -5.851772253849212 6.6634312700793235 0.0
91 2 17.512624065446808 16.667126151408063 0.0 -9.712303648955286 -6.7758558115790155 0.0
92 1 17.169460352055037 15.452180648540574 0.0 0.8947724282403801 -7.912032572770284 0.0
93 1 17.822100786309058 5.332458516136587 0.0 4.412389245605771 -4.314490011272686 0.0
94 1 11.54103943331507 3.48608514174377 0.0 -0.5815910163766458 -11.492936030468599 0.0
95 2 5.580444460244788 12.593724152916364 0.0 -7.002461983564313 1.6182006911504658 0.0
96 2 0.8539346537866905 9.59869464133186 0.0 -5.484206852129451 6.43816452466556 0.0
97 1 17.521307961048336 11.589950668450339 0.0 7.979966058604851 -0.8133163060373011 0.0
98 2 15.591426618627008 11.475393852019575 0.0 1.329626486231552 0.9526017803401904 0.0
99 1 18.085512922385064 1.5105243297630397 0.0 14.714659770387481 -0.3783950922055494 0.0
100 1 5.2103040270298955 6.1219238014558846 0.0 -2.4903862481029972 0.8439926934038261 0.0
101 1 6.7468141728367 17.930156682866606 0.0 13.647464756804926 -10.371716930991354 0.0
102 1 14.581731246068848 2.6684793271040466 0.0 11.695819035649317 17.131527722213473 0.0
103 1 1.8371140935485253 4.214935053408522 0.0 4.861479011287963 -9.243238235131185 0.0
104 2 3.68435642898443 12.896157175979393 0.0 -3.556939632025428 2.033873100669963 0.0
105 1 8.189065771951775 10.76913975418442 0.0 -13.808037593547185 -9.674345349817436 0.0
106 1 18.266917045531375 17.521759560313672 0.0 7.4962005393197275 -4.7982505801384505 0.0
107 1 12.686693468618769 19.131967324176582 0.0 -9.658901611772452 -3.2511386999197347 0.0
108 2 9.329550562295871 3.167711066246804 0.0 4.910092400349278 -6.885857144544712 0.0
109 1 15.684621049800844 13.763135966712888 0.0 2.6483797942246037 13.877967052935462 0.0
110 2 19.71103568488178 16.669739166449666 0.0 8.884334983458743 -7.568797681273974 0.0
111 1 13.841872644716132 5.408986764636869 0.0 19.663528731586126 11.525387490418941 0.0
112 1 1.7215723217404764 2.711928772145352 0.0 1.7034093850913596 12.202552724426939 0.0
113 1 0.7194422238491097 11.678039161795265 0.0 -5.513422274892779 -10.121399766602098 0.0
114 1 15.213396026905405 13.34585388114436 0.0 6.659625721731258 -0.9916639048001834 0.0
115 1 2.6015663192406073 17.219823193579906 0.0 -6.015908163713204 2.323126741532639 0.0
116 2 18.99893151675769 15.37905487368084 0.0 0.7025061750376431 -1.7913660658660275 0.0
117 2 4.204541978058327 11.375069231369364 0.0 1.8866976433412934 8.745383139724371 0.0
118 1 13.208481667875109 9.811256879869475 0.0 -2.8568720200557363 -18.89344257592586 0.0
119 1 13.563530648919157 3.3200958076441416 0.0 20.908978785078716 -6.121041793515801 0.0
120 2 9.361221295543887 8.033129019847772 0.0 -8.483885827070342 -3.555446579220889 0.0
121 2 11.250809352674242 13.746196484386353 0.0 -1.5775329868569008 -16.193221173270423 0.0
122 1 0.5995125124085009 13.424673066073979 0.0 -1.6237640863162517 11.244450749278808 0.0
123 2 13.911808613448201 7.113718143670145 0.0 6.458145231493987 4.386395750582497 0.0
124 2 6.024407970959287 19.425510180205084 0.0 -3.0221608735977497 -5.382193810365659 0.0
125 2 5.038032740874632 1.816605022140199 0.0 -16.43424817779129 4.448561537259269 0.0
126 2 19.331530964149184 13.459926205086468 0.0 -10.207183763696847 -2.3881103689972023 0.0
127 2 0.14667911176763426 18.170089770943758 0.0 3.0649231167715016 -4.153397021104038 0.0
128 2 12.423237712231233 14.476758225038605 0.0 0.19045851103869235 4.939523510743719 0.0
129 2 10.555068347461845 15.530737875482425 0.0 2.143044528342452 7.256687806215135 0.0
130 1 17.2342877712796 5.741698281811432 0.0 -9.522466044882089 6.769695402436473 0.0
131 1 5.493942241529612 6.914516853883826 0.0 -6.850588499637101 13.349849774543571 0.0
132 1 6.388646761093016 16.37608347747442 0.0 7.103373602018724 -11.352445374069246 0.0
133 2 8.148694551639522 7.982575323919022 0.0 -0.5872748588933505 7.78713285354245 0.0
134 2 14.250918498241825 9.081891257132982 0.0 -1.0444945918454842 3.2579030227090615 0.0
135 2 7.667462635635987 7.11857798180066 0.0 12.78655162564797 -2.653167661240663 0.0
136 1 3.5572106163428048 4.466302140660506 0.0 -1.9728681668665873 8.84185182739885 0.0
137 2 3.256251261516977 14.910906764270818 0.0 -9.241899448537794 -1.8912506914908251 0.0
138 1 9.3149472299876 18.438118419437693 0.0 -11.112063931545253 5.875563789725995 0.0
139 1 15.881349515451339 16.219853009429173 0.0 10.065712342943925 -3.5793965089251674 0.0
140 2 0.592141994071142 17.18531757074247 0.0 -11.572232518623556 1.8254180257236616 0.0
141 2 6.573150228076827 11.246756815770253 0.0 -2.071339523888692 -5.402367700623724 0.0
142 2 1.2916951156758498 6.016590764173324 0.0 5.35334453773225 4.887823218129007 0.0
143 1 5.513595316725153 2.679724363544702 0.0 19.521214621589536 0.6325327619412008 0.0
144 1 0.6340361947473063 4.75770677840613 0.0 -1.4712194426540037 -3.6330153131167697 0.0
145 1 16.501580745758563 12.828301127504169 0.0 5.740429230774298 6.535893611854723 0.0
146 2 13.486753518785658 8.09589971179891 0.0 -13.113201278157575 -5.252212704434917 0.0
147 2 16.667798017979393 14.01137388889865 0.0 -0.5402489868523344 -1.06906315836211 0.0
148 2 15.576845972015882 17.182654586885242 0.0 -8.346063970700412 1.5870582369080886 0.0
149 2 15.627411072463364 5.5827574554463855 0.0 0.12659453230636855 14.919251261386709 0.0
150 2 8.878449594234086 10.972492916359798 0.0 -9.346293348555308 -3.230556474668783 0.0
151 2 7.365111658864004 13.904351726526123 0.0 0.15024007726464092 -0.9989093227180564 0.0
152 1 2.718171872658172 2.2871403104252677 0.0 26.386209779126442 4.263877161559059 0.0
153 2 1.9804941821205901 1.6099828075650349 0.0 -6.753881834123366 1.5931537084862104 0.0
154 2 12.17733368157035 11.666239438167933 0.0 -5.097940406751608 13.8664032481558 0.0
155 1 11.268436857475955 2.7862450620060826 0.0 5.667875729070102 1.494450389408585 0.0
156 1 10.826993544188944 9.9228737909634 0.0 -5.44854937251874 5.238964351318085 0.0
157 2 14.463002193663213 19.278189222444396 0.0 1.6058282698436643 -6.119550321484981 0.0
158 2 10.288297827723047 13.6315882836167 0.0 5.64944422500678 2.332866746033836 0.0
159 1 2.839692264581009 6.288596143732864 0.0 4.230719230640486 -0.9469089566222543 0.0
160 1 12.391787091862636 7.016896859219217 0.0 9.889049574878324 -2.6438742256476915 0.0
161 2 13.18125596079609 12.857887162083292 0.0 0.5013471140515763 -1.845903814789165 0.0
162 1 13.883306477447565 11.603538862913538 0.0 9.306999604559353 12.477505288635756 0.0
163 2 12.08660179796063 2.7658239205052495 0.0 -0.34609910042183856 -8.00651916522715 0.0
164 1 7.772844711757919 15.983361821663728 0.0 1.7036460536781857 -11.575220822692469 0.0
165 2 5.815147240490376 14.380436688676278 0.0 -8.159692299405503 10.816514141810691 0.0
166 1 5.630250196367959 6.467669683837981 0.0 2.667834251339763 4.828996337437855 0.0
167 2 10.097150073088448 10.766139021436791 0.0 -1.6076335882173904 -2.902979382445668 0.0
168 1 10.194710333247885 18.11038914738555 0.0 0.35075969413920444 -3.6198698119355552 0.0
169 1 5.19444692119036 19.206665658804127 0.0 21.61075279773805 1.3345100183036094 0.0
170 1 8.797982535116963 0.7844686455953106 0.0 6.0226457507983895 -3.650061852428611 0.0
171 1 8.56096666545743 1.8833913716660542 0.0 10.630868239951432 -10.502205139109558 0.0
172 1 5.163050736652758 4.153349949269498 0.0 6.477006810095376 -6.190707564259971 0.0
173 2 11.979479811617558 5.14170872829676 0.0 7.323392721233595 10.198837308563206 0.0
174 1 9.071877182764803 17.896926664022423 0.0 6.780833177920603 6.242503489548858 0.0
175 2 5.802610502206908 15.703711500888902 0.0 -6.0655884649865035 -16.552869179969644 0.0
176 2 17.973888896045658 13.515704488976988 0.0 -3.35946332172203 -7.997857357155421 0.0
177 1 4.927819726962562 2.996467603469412 0.0 8.223617860185545 -1.5110726757985917 0.0
178 1 4.82639887297725 5.156409911617829 0.0 -11.879081650253003 27.828005394593685 0.0
179 2 10.865957788671151 0.8091948528389956 0.0 5.975389257774399 -3.8555606810214305 0.0
180 2 17.957655165298217 15.454429363249984 0.0 -1.1842901801451347 4.4212546355966955 0.0
181 1 14.787769479585267 12.141778218106781 0.0 1.1546841288403127 -12.579966520399555 0.0
182 2 13.08867274043211 2.2480896333689575 0.0 4.461231768903922 -0.8106972269076834 0.0
183 1 14.845510940958253 5.713569238495585 0.0 -5.901273839083415 -11.672721842208738 0.0
184 1 18.558450044223076 5.51069980744978 0.0 -1.7812540738137654 -0.04679926405521479 0.0
185 1 13.897586647705035 12.28820780477072 0.0 16.360278138362553 8.603418877196066 0.0
186 1 15.627891246624275 12.513916599474154 0.0 10.183249859421302 -5.0154484745074335 0.0
187 1 2.2765740052488765 14.962160375240938 0.0 -5.272344198611426 13.457836733101786 0.0
188 1 1.850463953962737 7.4330047154691705 0.0 -13.230971268185135 9.561044249479162 0.0
189 2 14.549827799965486 13.940521676611272 0.0 -3.3099888937810555 -4.027535086518861 0.0
190 1 3.951686792181735 4.222280196203994 0.0 4.1899843382452255 9.464934374027369 0.0
191 2 1.7378432076821435 11.338796937852814 0.0 -10.492808682032624 4.238031510154023 0.0
192 2 1.4358115787624137 17.879222562031927 0.0 -4.115679812713059 5.962119614208868 0.0
193 1 5.8070593834916515 3.8767102808739655 0.0 -3.782665570856419 0.8645034997119393 0.0
194 1 10.74948488616767 17.92677362809455 0.0 0.1562965023819984 -1.391853886361645 0.0
195 2 0.7850916735449895 2.120624772417133 0.0 -1.5987216769307784 3.0613186458800676 0.0
196 1 9.520117079503219 15.453943491469975 0.0 -7.4350931045481365 4.6493860902873365 0.0
197 1 2.887740006239265 13.11807086305664 0.0 4.450809160717904 9.545164263674563 0.0
198 2 9.929624127057648 19.109697855066827 0.0 2.1567335621591748 1.9399216720144223 0.0
199 2 15.962160006858849 18.8915785704873 0.0 2.033302968944897 -3.9146011916623813 0.0
200 1 4.518134647896923 16.07501303845237 0.0 -0.6369132894721347 -15.599589759308696 0.0
201 2 12.94175596531037 5.2263427499559505 0.0 6.206928719411966 -5.990680345585521 0.0
202 2 16.965035765234184 3.0802002538446875 0.0 -4.379205067139568 4.90712600132967 0.0
203 2 12.286055495300742 1.4983149208935698 0.0 -5.018807552818854 -1.6440523274934589 0.0
204 1 6.878660923042345 10.029161881941594 0.0 -6.9780126548062 6.892725127446466 0.0
205 2 14.535291403071122 11.036303507563902 0.0 1.714397632758641 -7.750640892027808 0.0
206 1 4.686426263784877 17.0944101708312 0.0 6.500039104849607 0.25806878951483736 0.0
207 1 15.698178004576937 1.6629745842687698 0.0 -4.169968466787419 -1.038151959016866 0.0
208 2 18.66428183112581 12.865992586730302 0.0 -2.2927571096041124 -1.2408851757748283 0.0
209 1 1.671025849092193 17.01693403752721 0.0 12.797862705784754 2.4939587091438646 0.0
210 1 11.957190627549778 15.403372207512179 0.0 -25.975233456614813 11.118384921032911 0.0
211 1 17.989203358392007 12.230079675623397 0.0 1.9103277587264875 -9.933233578076692 0.0
212 1 13.791383262434664 10.668793748344058 0.0 3.955925980410733 -6.920884509432456 0.0
213 2 13.95797150851826 16.826833811367266 0.0 12.415738367469606 -14.1638992292124 0.0
214 1 6.664518159474327 13.16865325371351 0.0 -23.249198728156646 -1.6023924583448483 0.0
215 1 7.772967427101509 2.0937582849748484 0.0 14.512596036700765 -0.10916927452820605 0.0
216 1 10.079737365995314 7.5624670771260245 0.0 -9.389637690594201 -3.2885679732276922 0.0
217 1 11.360926219381325 3.9573880858931103 0.0 -20.606650941828235 -3.3786053054010003 0.0
218 1 9.9532601602414 17.635154359170745 0.0 -8.749342964625738 4.04736916509227 0.0
219 1 6.015463331159827 17.952744606060374 0.0 -5.107950436909396 -12.680270823441784 0.0
220 1 4.375265089883038 16.72840359752059 0.0 1.1162828502124569 4.760687690401492 0.0
221 2 2.744417453056594 18.671498297057592 0.0 -4.581515945825063 2.8161322081047104 0.0
222 2 11.4716088654913 19.295911392561305 0.0 -7.595131350822284 -1.8387955765966286 0.0
223 1 2.1719212648411985 3.6081722453946035 0.0 -0.6497751521046439 -4.207302928729864 0.0
224 1 8.727611531510927 15.694202024414896 0.0 -2.8767831291348602 3.8690351694368252 0.0
225 1 9.690644107182822 8.799298922204827 0.0 -4.648605986543946 1.7392762271723057 0.0
226 1 5.7103887311371695 18.432998794241623 0.0 4.228763062768169 14.244568260727196 0.0
227 1 14.932868034819196 7.66422081965296 0.0 -5.250537882606067 -4.284796714008691 0.0
228 1 17.199203042578624 18.67147121989078 0.0 -8.19828462191764 -1.8450325145960733 0.0
229 2 11.569383695792796 7.397723147649246 0.0 -7.26381172823797 4.925591878667989 0.0
230 1 6.56491708030172 4.391666318321347 0.0 5.20621684901179 -2.9545121502600504 0.0
231 1 12.407309296092748 3.822906893738132 0.0 5.1884231883983265 -2.3181419546126647 0.0
232 2 8.24346181933219 13.539241020416627 0.0 10.924370251333754 2.61739366231494 0.0
233 2 4.397487648884961 13.608082822597456 0.0 -6.093372355685357 -11.212046623155917 0.0
234 1 2.9109214634233607 8.500350720278725 0.0 5.1644529717697445 -10.252978556784313 0.0
235 1 1.5171067239817255 8.754591957870286 0.0 4.7374597292873 -10.837367335765967 0.0
236 1 4.98560230557692 15.612974885857327 0.0 -10.50880241245716 -1.2403765550824735 0.0
237 2 0.09309963314793575 1.368607972285401 0.0 -11.336894157151379 -4.818760642284058 0.0
238 2 18.990549960886874 9.661439617947583 0.0 -5.417351250338362 6.388081045700948 0.0
239 1 5.725566780153409 11.566391082723214 0.0 1.9792253914443592 0.44637683076036583 0.0
240 1 9.929181569611146 4.136603456435637 0.0 1.9085064115907981 26.506590484755325 0.0
241 1 19.304094221228304 2.6369122519836017 0.0 8.112745385632621 -5.278861740923875 0.0
242 2 19.581524754876423 10.501241906848714 0.0 4.314338651179446 -0.8953443879433107 0.0
243 1 1.6149383095182883 0.6770966283204124 0.0 -12.735190070009159 -13.815975465633068 0.0
244 2 7.517017475062428 0.05125562076092849 0.0 8.066286600674635 -4.931194060423064 0.0
245 2 6.682261454867815 6.32915403802135 0.0 0.06759705805241056 16.251104632678487 0.0
246 2 1.0895058981021826 15.003871879995623 0.0 4.883511362691129 0.2980865742718398 0.0
247 1 8.639009875641634 17.63415361349808 0.0 1.415621280819206 4.481715106103575 0.0
248 2 15.37012177864352 8.285429299610234 0.0 -5.920614136380704 4.6334887543025856 0.0
249 2 11.023864900547212 16.779786224948264 0.0 -1.5025808609433293 -3.9025641625310326 0.0
250 2 18.71322367747059 18.448265275045436 0.0 -6.454019842014944 3.8847505834333598 0.0
251 1 1.5943030325453442 6.999820166549941 0.0 -2.8530792974463166 -5.524918452165059 0.0
252 2 17.983064408002434 9.297304196349211 0.0 5.878143556807138 -7.590480260170117 0.0
253 1 2.865702393040983 9.154659658187178 0.0 2.989849334451576 18.879131064778267 0.0
254 1 16.654649491677056 5.961711412588906 0.0 -15.236926371779854 4.986491999874113 0.0
255 1 2.1457595383997594 2.951079900831203 0.0 4.619425731516317 5.166721441168445 0.0
256 2 2.016568222693747 5.378980559628332 0.0 2.1407902429571033 -6.490114186900017 0.0
257 1 14.416851216405771 5.931052550016814 0.0 5.672409066002714 -3.602836759718455 0.0
258 2 11.14373685613391 8.16741674990456 0.0 -5.289821500430663 1.527609143458767 0.0
259 2 4.615205433051338 6.826240954737783 0.0 6.205825771082511 -1.9495354500101232 0.0
260 2 16.748351613686808 8.649001496738746 0.0 -4.241832031337073 2.0872131902170286 0.0
261 2 2.482639862231607 10.735770317286995 0.0 0.5417621165011425 -3.3661709036733996 0.0
262 1 10.722609654439685 3.087621068192991 0.0 -8.424049066850836 0.32543767464526907 0.0
263 2 1.7437390046409236 15.834708484574413 0.0 6.871251880898114 -1.4093371329953468 0.0
264 2 3.7776880765245218 6.681656902481666 0.0 0.26700683107477263 -0.2570026925140677 0.0
265 1 12.362686622963514 9.13623346790962 0.0 -4.8713789277824855 5.411717957133946 0.0
266 2 0.8102859945368791 14.237400673279272 0.0 9.92121624525151 10.8417164678863 0.0
267 2 13.325012093229889 6.034383036361559 0.0 0.4964807457528377 -1.182771897784435 0.0
268 1 10.369317868992376 17.336083913798404 0.0 3.8759010576594393 -6.02408817087073 0.0
269 2 15.111539139053411 1.14906176987696 0.0 -6.5660265927686465 -0.5533142873830335 0.0
270 2 0.3271142798982641 0.35479409163675424 0.0 -2.2359991302970217 -3.029767309303266 0.0
271 2 14.39258364903801 9.933587655290518 0.0 -6.641740603780885 -14.018476419350476 0.0
272 1 16.27924561389018 12.272181058279735 0.0 -14.004294969969443 -1.6766453183389625 0.0
273 2 9.630002052864143 6.672421920762809 0.0 9.267309256640342 6.449809423472562 0.0
274 2 17.87093391970155 3.523659059322592 0.0 6.873415153965689 -2.8052089264086164 0.0
275 1 17.76596387702106 6.942656430178231 0.0 2.4453559404764587 5.436629462215099 0.0
276 1 9.299958024427763 16.195168907762667 0.0 1.6933093859621244 -14.517698111676125 0.0
277 1 2.050290701566458 13.187405919635648 0.0 -0.5909490743893965 -16.323156172796317 0.0
278 2 15.90917710196972 9.934839294264101 0.0 -2.4214278425172724 -1.4066225427183816 0.0
279 1 4.131467707547668 0.7681726655780201 0.0 19.032076424003364 -1.620749547467118 0.0
280 2 16.611723104876585 4.864485199987864 0.0 -2.77510813022028 12.678595499697034 0.0
281 2 9.791591745731097 0.2429513096835909 0.0 -7.7087064322242975 2.461057772575949 0.0
282 1 8.595210196947585 19.545727666100962 0.0 6.2053417392505255 -2.820290578879174 0.0
283 2 3.5538932530799237 13.871032930650598 0.0 4.696460642466222 -6.89130839041086 0.0
284 2 9.95284552706111 9.665386497675083 0.0 -1.7791852669180612 5.453958873708665 0.0
285 2 9.090139517101326 9.936072948225616 0.0 -4.855180813429551 0.8742122452991019 0.0
286 2 5.331480938977126 0.3874819341687438 0.0 7.301422280824532 14.391489897100413 0.0
287 1 13.513965705856512 14.005772359477703 0.0 7.851052157906545 0.07246812909657904 0.0
288 1 4.7190600089056804 6.010686877843783 0.0 6.344273489564446 -7.547024488108275 0.0
289 1 1.248787320574901 4.410033683433309 0.0 -12.014371946060757 -2.2310043103115853 0.0
290 1 7.505208799318838 8.570508270759612 0.0 1.5269586349173212 5.402141839894105 0.0
291 1 1.1640558631698286 7.182093843678605 0.0 -4.730393501027369 -6.255965385134045 0.0
292 2 10.422694387608965 2.1263238200417565 0.0 -2.832608515719977 -4.75584897380838 0.0
293 1 7.94530579111825 16.65110057708414 0.0 1.8624074002550746 24.59284693917372 0.0
294 1 7.290617973840154 10.391490877143825 0.0 -12.67120891889051 -1.9676583409871253 0.0
295 1 16.646309008513047 11.252022602363075 0.0 -4.524325665762089 -7.209481221331899 0.0
296 1 5.1643322962771645 11.1247132805094 0.0 8.85915492198405 12.081744232495819 0.0
297 1 16.23643740491951 1.1896558448345214 0.0 0.8387628490146556 6.8267987063624815 0.0
298 1 18.256762738239797 11.0699458289672 0.0 -5.010115212884542 -9.137181572856429 0.0
299 2 13.453119510051904 1.329860827256087 0.0 -3.4015255106452713 4.7389692442461016 0.0
300 2 10.726110975644502 6.16120200297613 0.0 2.436115141827517 -3.6653330682906446 0.0
301 2 17.033542183424363 10.369415708143732 0.0 -4.6614190543008 -0.5932096350312817 0.0
302 2 15.901888915437292 2.3913587498387283 0.0 -6.606752295042905 -11.691231222140336 0.0
303 2 8.157223135098572 2.743618448303768 0.0 -17.243291026013747 -2.8759614160671503 0.0
304 2 8.296305825866025 14.452082871930466 0.0 -2.807917799448001 -2.5430981747895918 0.0
305 2 12.140127747842598 8.181683432973578 0.0 -5.714677835282337 5.956378311117969 0.0
306 2 10.18671036847492 14.552703813633984 0.0 -10.60825712285997 -11.298340981535867 0.0
307 2 11.127769018057839 5.303435810970131 0.0 -8.929540362908313 1.1740955326700069 0.0
308 1 12.97386784801073 17.541991390982435 0.0 2.2469598808477085 -8.448852747947697 0.0
309 2 2.663240227597046 15.796777868918863 0.0 -0.3108213871175845 6.422822464492325 0.0
310 1 12.255544127932314 0.2533162383631705 0.0 -13.169531088038509 12.492480949520392 0.0
311 2 3.5459450029230264 19.49702337194767 0.0 -7.169670679331541 11.411375107548947 0.0
312 1 17.049788556702982 1.2522493467489941 0.0 2.1968516798465214 0.982887692214445 0.0
313 1 8.697758020651367 6.136836577734401 0.0 -2.2381260955675972 0.5707343394774335 0.0
314 2 8.638659281155265 6.923305588985249 0.0 1.5835157927873318 3.9366513137697816 0.0
315 2 14.328454367268879 1.4606412170742813 0.0 1.6015471679825923 3.676661293825566 0.0
316 1 6.121913942419704 9.440355848141895 0.0 14.403642556872118 -10.355745496700898 0.0
317 2 1.2680225122742648 18.972469144105563 0.0 -0.31629101700728135 -7.562972856050295 0.0
318 2 9.727921456423726 5.649963547612208 0.0 -2.7481371568353583 -0.7239748568270115 0.0
319 1 1.0737571110841801 8.667192715372714 0.0 10.980980351357983 3.3389681421804966 0.0
320 2 1.983658320097564 9.975594246022004 0.0 -2.5191619246447763 -0.13335817268186131 0.0
321 1 14.841610787240787 1.989809244510554 0.0 9.480322747369044 -14.54829569476318 0.0
322 1 1.9528447682392465 12.500684257071647 0.0 -1.468711662509149 0.9118567472886578 0.0
323 1 13.552190458506526 4.763601193620467 0.0 6.032215165462391 -5.9353441629214565 0.0
324 2 8.10696375052271 5.0988602895128645 0.0 11.281723152073273 1.0647483755081502 0.0
325 1 1.408008128083265 12.685061390109901 0.0 -11.236640017142788 6.880036651049822 0.0
326 1 17.764001342934055 1.8876152380776823 0.0 -16.484239066749964 -4.533662466179897 0.0
327 2 18.474621264717886 6.729477888743431 0.0 1.5368744164939057 -5.29382994371697 0.0
328 1 18.468767791145627 12.031050551131464 0.0 5.631494452592311 17.90738938497582 0.0
329 1 11.86901930334235 0.6746756163450578 0.0 9.026378373606589 13.838654923612724 0.0
330 2 15.81350579793205 18.02000893038693 0.0 -7.921041665525432 -5.940235377101544 0.0
331 2 15.903692079060058 7.004802039492941 0.0 -8.089720045713014 -2.0189653310097846 0.0
332 2 11.654685793331684 12.666501516455359 0.0 -5.434006976438478 2.9672450317039005 0.0
333 1 19.47981162061967 5.8220203718793595 0.0 3.294378183100693 7.40989106317404 0.0
334 1 3.9306204831161646 16.469441482351158 0.0 9.036154852146037 13.697928845370564 0.0
335 1 17.311799114032958 12.69587772709497 0.0 -7.226162326967295 -9.912092409048427 0.0
336 1 12.763289198079592 10.093602472011208 0.0 -5.375654185848803 0.8280584342213998 0.0
337 2 3.251805368033226 7.608201004246687 0.0 1.140634399632844 6.36500637886075 0.0