ITEM: TIMESTEP
0
ITEM: NUMBER OF ATOMS
400
ITEM: BOX BOUNDS xy xz yz pp pp pp
0.0 19.7609 0.0
0.0 19.7609 0.0
0.0 10.0 0.0
ITEM: ATOMS id type x y z vx vy vz
1 1 15.801448088013869 8.872671856893051 0.0 6.849976014253441 14.269406058407963 0.0
2 2 16.057092418182233 6.675414523427517 0.0 -0.6424312051062574 -7.008606982891939 0.0
3 1 15.754020895652499 14.287328235263232 0.0 -0.2024289690233786 6.126117817905253 0.0
4 1 18.58976096055632 5.978962862357613 0.0 -2.65410996324547 0.31382120715930956 0.0
5 1 2.796677089882076 13.269722352186193 0.0 2.6780492298806653 2.6400809090047566 0.0
6 2 10.917573931510464 16.77442656272759 0.0 -0.26215504757409347 7.703153910211205 0.0
7 2 7.499136952316393 8.300911598731151 0.0 6.286033309337779 0.7345454873312589 0.0
8 1 5.8519446645773145 18.346640589157282 0.0 16.472957828163953 6.748374084737389 0.0
9 2 7.690128221826119 14.59253273076746 0.0 -1.0967103232707052 -1.8668148853536146 0.0
10 1 3.0440205801838163 3.2543322854205314 0.0 6.417091592715833 -11.050925159458268 0.0
11 2 6.315684858616542 7.835713289926719 0.0 6.279008043493121 2.0312223527722164 0.0
12 1 4.789167670356277 18.966319200304845 0.0 3.1475538662849636 -11.598518575678726 0.0
13 2 19.29913638684072 17.04862326581355 0.0 -6.8468231608487775 -2.6367070454918173 0.0
14 2 3.659690450053837 10.397181185722705 0.0 2.2270314004705623 -10.629419169436867 0.0
15 2 9.829078464040998 1.230503393068723 0.0 -6.4951521377713535 3.8043356135473507 0.0
16 1 6.200245218033065 14.118839204356956 0.0 1.6197256721376605 8.463958203005966 0.0
17 1 14.906168348906975 3.5727080358436765 0.0 -3.2374596374836546 -4.482459899837267 0.0
18 2 16.99054184973181 1.1449269044094104 0.0 7.26642680731201 -2.8136245234388686 0.0
19 1 4.842806408349254 12.648582693083856 0.0 -12.945096577391253 -8.138994359043428 0.0
20 1 9.922654328776728 0.16604047187254167 0.0 5.549045264040296 2.084916748136142 0.0
21 1 12.503675164694382 16.313695328576728 0.0 3.721500292500337 -11.417076915997292 0.0
22 2 0.40767607278617696 4.503781355812102 0.0 7.452902771555163 1.6437797710240978 0.0
23 1 13.183973973238581 3.5716501819492206 0.0 6.579788288683437 -5.645660713651733 0.0
24 1 12.775258726865992 5.086811292642055 0.0 -7.855363772973664 -7.630351514096621 0.0
25 1 14.317001501276867 10.446267540922989 0.0 0.09670095303990582 -1.200565767528591 0.0
26 1 7.236903490528937 6.404798242489475 0.0 -12.610513271773922 8.0809840360255 0.0
27 1 12.35341424493503 15.448568358609075 0.0 -3.8116761922685254 -12.908289200717912 0.0
28 1 14.008519655204434 17.32815281882332 0.0 -0.6123466751655008 -2.0843134471509686 0.0
29 2 19.18196911457922 15.436204586268865 0.0 1.9234473805075065 -0.06943699858523063 0.0
30 1 16.70251039875472 7.2708667263809605 0.0 -6.523605165842181 0.38791868244141176 0.0
31 1 12.675193770698543 0.14314174196684354 0.0 -3.434197843460134 -6.339904532817775 0.0
32 2 16.00405226377204 19.039511500972566 0.0 3.8866510804906262 4.395740031243654 0.0
33 1 15.949410512131664 15.139492261429934 0.0 -5.2049352757557905 -4.904411136092227 0.0
34 1 13.35115703883279 15.186022241691678 0.0 13.604631139727646 -9.911986454252984 0.0
35 1 11.492675406472623 18.373270201364452 0.0 0.6816542440228897 2.3460883384473066 0.0
36 2 13.305089104260775 13.435422815713554 0.0 15.973209172402564 2.1928535390237376 0.0
37 1 13.00724595210133 12.628765553936717 0.0 -6.255347038599617 1.6654905391836339 0.0
38 2 5.862906865228053 3.346276970618197 0.0 2.575157630039098 -3.9342967211872852 0.0
39 2 1.5222628764859605 7.205903336292265 0.0 1.7950445149326335 -14.201733555153154 0.0
40 1 17.07166803353524 9.57535696135196 0.0 -14.081885087890347 -0.11280939336997184 0.0
41 2 8.448415791951682 9.067434431564752 0.0 -1.7000665507900934 1.3619296004464398 0.0
42 1 7.3937659658412755 13.211534662722705 0.0 7.701220484994802 1.0802661111359364 0.0
43 1 17.906705877841198 16.71708041115479 0.0 0.6827073544406738 -7.1588340688939605 0.0
44 2 8.254333233056173 17.996316201390115 0.0 -3.76266444955759 -0.9865064591262598 0.0
45 1 16.977721098414257 17.156122712953014 0.0 -5.243970738987675 -14.662640045093287 0.0
46 1 13.656002142137497 0.7796032812028382 0.0 3.706553740032877 4.499821071284834 0.0
47 2 1.3392853241623188 2.9426803069481196 0.0 -7.44862016154654 -2.685602608271983 0.0
48 2 3.42879943051264 9.107355263435153 0.0 5.57800050166606 -8.238495691928557 0.0
49 1 8.04428330485036 4.227634985987791 0.0 0.3587559048626437 -8.123449311806898 0.0
50 2 12.09755659106227 18.918279315107725 0.0 -7.046721807100481 1.8284887074434444 0.0
51 1 17.283197047490756 13.756087999327695 0.0 -6.502441895818851 -1.4203415686219338 0.0
52 2 7.347415788371037 9.260129106792908 0.0 -0.4429453846655238 3.2092534918661353 0.0
53 2 15.730542733256714 11.671598490938104 0.0 -1.7340195540931096 -13.066686486823079 0.0
54 1 15.209615976871481 12.644509935598775 0.0 4.484606100582211 -0.8340987028455493 0.0
55 1 4.413069145649626 8.008137222138965 0.0 5.482445207283386 11.581678217301937 0.0
56 1 3.932503866143102 18.155220298472205 0.0 8.695343026884736 2.9191779741954975 0.0
57 1 4.542838950489194 18.60741811554232 0.0 -2.277276578908129 -10.519099992258456 0.0
58 2 3.4670246429262885 11.476740991906265 0.0 7.545613451853877 8.05890564575708 0.0
59 2 1.5359185308660812 5.0940354238716985 0.0 -0.3548296751164979 -8.992406216031917 0.0
60 1 8.87720239489578 5.299796111153511 0.0 -1.6406200510569262 5.44783389286506 0.0
61 2 4.702862100598836 9.325911320163387 0.0 13.180037611846847 5.824289183160976 0.0
62 1 8.347603428230487 10.0762134820199 0.0 5.363797350560023 -11.92170891556628 0.0
63 1 17.185380967557634 3.5647312648752547 0.0 -20.44707372933644 14.304726120085153 0.0
64 2 6.555375646084926 4.050908978501139 0.0 -3.6158242981675013 -4.750535691715257 0.0
65 1 0.4822371011439033 18.065451195426796 0.0 18.580976714547823 -13.889862276368843 0.0
66 2 18.317588873688337 11.07597365342479 0.0 5.497681655672105 -2.792071415033659 0.0
67 1 2.6416569802331287 3.78199001023722 0.0 -4.854417142018113 -0.5565629992321037 0.0
68 2 14.199452504573664 6.553950100995542 0.0 -10.944709279471112 3.4201915194278207 0.0
69 2 0.5213134994393278 18.809910151687575 0.0 -8.739783680936453 -2.7258001255357804 0.0
70 1 11.955633112960188 8.830766842660845 0.0 19.727236741851307 -15.481831341330466 0.0
71 1 15.356616113084204 8.655028465997296 0.0 9.816887865159888 -24.38552550520549 0.0
72 1 6.485927194966909 12.176935323981054 0.0 -2.89082766925164 -14.495708099129695 0.0
73 1 9.458215706909147 10.909365490514977 0.0 -2.667195300461765 -13.363820192250804 0.0
74 1 17.54862946668424 17.24743437107574 0.0 6.820317128621865 -10.848332691349484 0.0
75 2 19.717439578477777 2.1607261006941525 0.0 10.67434087870117 0.42612929165800784 0.0
76 1 6.366503866436897 13.550085717092726 0.0 -14.680810479813106 -2.162635820723502 0.0
77 1 0.7398565743088656 5.286374373781844 0.0 2.0998179864895987 -7.7334957181785455 0.0
78 2 5.108715069288485 19.697053808614374 0.0 -8.355846813345583 14.617091214284127 0.0
79 1 11.49022110368484 9.037355545081201 0.0 -4.969374891810906 -0.012491588778060959 0.0
80 2 7.758720719890676 5.644525218559821 0.0 2.2126033672933745 7.80196959595678 0.0
81 1 8.058606867930079 15.323127030919911 0.0 -2.838758108676929 -8.117701068916935 0.0
82 2 9.531196472161978 6.512888256350143 0.0 -4.350897796319154 0.8973607031316799 0.0
83 1 17.857526671675817 1.7533058905928802 0.0 1.8107082314379308 10.853048325182268 0.0
84 2 18.141354380601463 3.7456648721725974 0.0 -0.9067756573847577 -1.632041383552229 0.0
85 1 10.293722442432392 12.137710406288937 0.0 1.0341682788858424 14.90702529017778 0.0
86 1 12.245450422060497 11.37523321111149 0.0 0.2795463989151164 3.7085117812371187 0.0
87 1 3.0942211403383313 1.7267629832286993 0.0 -13.201356083299508 -19.954338363604368 0.0
88 2 13.746911288180039 11.82430075407254 0.0 6.191388077005712 -3.0741440609154966 0.0
89 1 12.996321826989794 11.323665554902652 0.0 -10.127048399710642 3.8405460243844747 0.0
90 2 10.392286787521606 7.272830055894699 0.0 -3.4222108177107047 9.351855208111004 0.0
91 2 12.372002971016702 13.379185508570444 0.0 0.31579008961028954 7.06747145911747 0.0
92 1 12.634103947458316 11.623111203999366 0.0 7.761088020567641 -18.112957508416105 0.0
93 1 2.8304668631964023 16.12981935613073 0.0 11.455534514016144 -4.935077540508776 0.0
94 1 12.543780934910826 5.528623623386882 0.0 -0.38900231884385167 1.8102540969172571 0.0
95 2 10.32030520930031 3.140493113702583 0.0 -1.6200005951900218 -8.997117034312327 0.0
96 2 9.114992416220192 0.6660515397174531 0.0 1.423967620558986 -0.600249562275474 0.0
97 1 6.31181853367281 5.933232022463858 0.0 2.7739326406727947 14.84691093785675 0.0
98 2 11.328885092769971 13.997874709337175 0.0 -11.456605853020651 -0.14881476656667397 0.0
99 1 8.560116908851116 16.47168215729658 0.0 -4.2132642056803 -3.49743100377854 0.0
100 1 9.117096693017137 15.725281720653747 0.0 -9.013950301478149 0.6506955763052136 0.0
101 1 1.9085493987521223 12.122735469340784 0.0 6.192478761665215 0.18972367386278596 0.0
102 1 8.029448465003695 1.0255304349661245 0.0 2.10201338846002 -4.09714086417952 0.0
103 1 4.214402710993421 14.904089342664742 0.0 8.945455095726137 -21.976942065371986 0.0
104 2 1.4081884205119937 1.7849254010422828 0.0 -7.798809484469593 -0.5063882034946771 0.0
105 1 8.96353589500605 12.849345243550822 0.0 16.610910498332654 1.2271947829646646 0.0
106 1 17.6664426493736 6.423380152413589 0.0 1.2733854563991656 -15.77901380752273 0.0
107 1 16.69561755150199 15.914989123584936 0.0 -5.801413796548768 -1.9593547720550897 0.0
108 2 10.446712248929769 13.464626193021529 0.0 0.20899326188981318 11.593873532057597 0.0
109 1 6.554686105923629 9.178227917907424 0.0 -10.207499198063518 8.425925976420315 0.0
110 2 14.023084458806718 5.276559451095839 0.0 -4.726866585346531 12.207933949373349 0.0
111 1 3.806071389068616 5.819946018501973 0.0 -3.9867219584560263 8.328974623845689 0.0
112 1 3.4747989922243168 13.408370065051646 0.0 26.49607594726342 12.370560439884095 0.0
113 1 0.277626552762514 8.96517649493706 0.0 1.058422443375761 -11.85610622897971 0.0
114 1 15.980578494715482 3.77740160058293 0.0 -16.50882604346781 -2.878468148846746 0.0
115 1 12.95601679268557 18.860649693845122 0.0 -5.254307237774384 -4.308545205833591 0.0
116 2 5.498366722039015 15.415470534426666 0.0 1.8230277841115459 -10.839727041256387 0.0
117 2 4.397812671073917 15.885001120105791 0.0 -6.874601768042204 -14.86422142365854 0.0
118 1 8.722540785003492 6.868346487579341 0.0 -12.015922998938569 7.846179354064489 0.0
119 1 16.919815516787803 6.17854889105226 0.0 -6.417183344617291 3.153705212288877 0.0
120 2 12.864205428494776 1.7341210762603205 0.0 1.7677042667217224 16.219692386749713 0.0
121 2 7.185790737038255 15.898680629912652 0.0 -3.6182852890468085 1.0097760807890563 0.0
122 1 6.109832220070074 0.5700229933925136 0.0 -6.328594535697045 5.1881100028621 0.0
123 2 1.1749780717191824 3.8804912403830722 0.0 5.051742985506041 1.3013551271648187 0.0
124 2 18.339261149970962 8.173298536547383 0.0 5.019745190958168 3.3111631353796347 0.0
125 2 19.758401758164233 11.077151773622335 0.0 -12.43908596705923 1.7234255099419724 0.0
126 2 7.231445904847127 1.5855502510985993 0.0 6.494548262536288 -4.954215696712075 0.0
127 2 8.680012304553665 6.092726890070858 0.0 5.178059924655835 0.1826030162434233 0.0
128 2 18.187530546719298 2.821422361137976 0.0 10.313817777217748 11.076652964873666 0.0
129 2 11.626093204816469 3.5064479791935104 0.0 -11.990714495594034 5.766670022803417 0.0
130 1 8.944392504738028 10.385495432721163 0.0 3.1218957630749116 4.1916816224589395 0.0
131 1 5.036783336749958 18.56081074972969 0.0 -2.838578258722126 -10.262418657824576 0.0
132 1 17.205972571687727 16.581868105219666 0.0 1.5644902742431959 -9.933760789998248 0.0
133 2 1.141291191072288 14.60823245992603 0.0 -5.099079463865816 5.362978261329805 0.0
134 2 18.149040044259596 19.20620672965312 0.0 7.40907280903135 -5.97031420726228 0.0
135 2 7.34333514229709 19.327311289078445 0.0 3.233253606498016 -0.1711070800118632 0.0
136 1 14.668505319655845 0.30495359638188957 0.0 -7.121180750059821 -5.159526924280501 0.0
137 2 2.5537017223121357 7.197229970870609 0.0 4.361702015636915 9.948416200829156 0.0
138 1 9.02996160130905 16.3751404132681 0.0 -7.108461059686149 -6.114827503767987 0.0
139 1 16.678384305304117 8.255399197979125 0.0 -9.128172585220522 -4.5967938745294035 0.0
140 2 17.11309108056558 13.03621288144243 0.0 5.023091534854772 3.149739194616253 0.0
141 2 16.046728967171493 5.691944946020528 0.0 4.182324893772281 4.140474668399753 0.0
142 2 17.613480073984952 7.772144510197504 0.0 0.42115054853622025 5.600069231372957 0.0
143 1 8.713435539598226 12.149517798331198 0.0 1.2369319656910152 3.5034028469648195 0.0
144 1 18.802745316023255 13.415577387915452 0.0 -27.98961320637927 -7.535812258881435 0.0
145 1 3.653734713269992 3.6128307570490916 0.0 -10.641241688714413 10.300010767359339 0.0
146 2 12.718940520116618 17.173962442079173 0.0 6.365683607105293 3.477328234540156 0.0
147 2 2.997028944000571 6.025201339422258 0.0 4.90728215024958 -12.021628480131753 0.0
148 2 8.430857179570348 14.056653727242137 0.0 -5.390776860602398 1.205649302221234 0.0
149 2 4.534413724507919 1.876388549463891 0.0 0.07224360928743487 9.377232856008135 0.0
150 2 4.5156306360683995 0.6764311622132455 0.0 8.399173371709887 6.719397435413237 0.0
151 2 18.538949362000007 10.054852382071136 0.0 5.221534313915884 5.42543595165092 0.0
152 1 15.862375635235685 17.502142602348755 0.0 -8.650173558274359 5.084016456250365 0.0
153 2 8.385522707353042 8.015051962172404 0.0 3.267657791136285 -10.207957290941165 0.0
154 2 12.820829931992177 18.052430024525655 0.0 8.801334159072772 -0.5796631306197987 0.0
155 1 12.260392905821663 4.927756284780449 0.0 -7.351552251635003 -5.223599504187244 0.0
156 1 10.299987753512307 9.403941569386847 0.0 -1.6700532669308754 -10.189922374259108 0.0
157 2 10.365624225672585 11.176779041376632 0.0 -0.4958925165247494 0.5213751269425487 0.0
158 2 17.140482162266906 18.723944119030122 0.0 -2.9486280953714514 -0.8713400045887536 0.0
159 1 7.9802978547667225 16.335580377065792 0.0 -8.095057633084606 2.666126714628943 0.0
160 1 4.1898469302720995 2.9571545035492997 0.0 -12.492901036614484 -22.602146257065638 0.0
161 2 2.1610906642650716 15.601872089791733 0.0 5.611908543927084 0.33214226503454214 0.0
162 1 18.23788821738498 17.402674342420315 0.0 -6.6900918030576495 7.405977569061432 0.0
163 2 6.19334743672485 6.858477231842094 0.0 -1.326548326554815 0.09610023660317255 0.0
164 1 4.386094146377571 7.515983525762772 0.0 1.0065625785939596 -9.043415009365278 0.0
165 2 7.623550317163595 11.821624196658645 0.0 0.8606374983860873 1.030697713606742 0.0
166 1 2.0630622357522337 11.602036245772396 0.0 -7.922206582366329 5.594937727053021 0.0
167 2 6.621023945347214 18.926477110138478 0.0 3.168836682619878 -1.9218213995259834 0.0
168 1 12.819463004772654 4.294439727710169 0.0 -2.8093087032682362 4.516632905165421 0.0
169 1 17.74940548801557 5.693515966478174 0.0 -7.382186656740226 13.207707926074791 0.0
170 1 15.37150137684493 15.898677564868366 0.0 -9.748138946592926 9.308561465086957 0.0
171 1 0.36944685002987065 6.329026778291285 0.0 -7.053924094703865 -2.912248197432542 0.0
172 1 6.843190508471882 11.704426956804477 0.0 -1.6179859931427825 -13.554133582437265 0.0
173 2 5.174059877789073 14.58372254449222 0.0 9.436237106281157 0.5063036268417124 0.0
174 1 5.7566468542266716 0.16830288492008458 0.0 -5.235314004657769 7.11854698490269 0.0
175 2 12.104686363661706 10.451792776061962 0.0 -8.757827336248523 -8.671649295453221 0.0
176 2 17.853269446071064 0.35006518433562955 0.0 1.230375806187681 -1.4557212241986606 0.0
177 1 4.709818379741249 10.853276395236607 0.0 18.21806703224395 -6.06352399761925 0.0
178 1 11.624616814709007 17.30158804562963 0.0 -17.151135247532373 5.499637042846266 0.0
179 2 17.54236922536703 8.818223738879672 0.0 -1.8849529917293806 -0.9734186206651665 0.0
180 2 1.342165647840508 19.402818168421792 0.0 15.503159472636082 -1.1084912089759085 0.0
181 1 14.770792098755523 16.554013510467485 0.0 0.4887452013393851 -14.067957043135626 0.0
182 2 19.586968155222348 16.285869342939105 0.0 8.484972953714662 -0.8370621545291427 0.0
183 1 5.613849419673048 12.359875563476185 0.0 -1.4897405695714914 -0.6704033984085822 0.0
184 1 1.1903188561070082 12.60217279469073 0.0 8.0563383802064 0.6313949527634924 0.0
185 1 12.039065235865657 6.7522793831683465 0.0 20.115995717757542 -3.4474531667601123 0.0
186 1 11.412990435240006 6.229982542618609 0.0 9.774475153687451 -5.160729947008084 0.0
187 1 19.71198160125879 7.53346040176245 0.0 -4.708963838933277 4.162791548574885 0.0
188 1 3.6353992110255753 2.9782526849165927 0.0 6.970684846418047 -6.682949892159557 0.0
189 2 0.29659241301683587 3.297262798156027 0.0 1.896496867911788 -2.8212619418412865 0.0
190 1 8.39299339109853 5.072928390025438 0.0 4.941461457655514 -7.79050988291365 0.0
191 2 10.760788417908415 14.569658723852953 0.0 -4.193150994624443 9.255306405200741 0.0
192 2 16.27392460245718 2.265963018111215 0.0 -3.064102291008664 -1.2380749258977817 0.0
193 1 8.636022236997986 15.890441783172413 0.0 -1.16330851725709 0.7372707679384499 0.0
194 1 5.474798665005306 4.974080214082737 0.0 4.615069320190233 -1.2221669852022852 0.0
195 2 19.048036008617284 8.973134848702426 0.0 1.1232810499183135 -10.355859178803478 0.0
196 1 13.382958121653454 10.945915982149991 0.0 3.004303794679513 3.8624477185266595 0.0
197 1 14.91420615356756 13.481158577241711 0.0 -1.9258554259580907 4.156140922097823 0.0
198 2 6.999998420794407 16.949274088518685 0.0 -2.3934959498873942 -0.4312157081148234 0.0
199 2 7.973775012529434 3.3402031542058177 0.0 8.02640115620804 11.637312895977713 0.0
200 1 3.4426130707545277 15.302342424093542 0.0 -24.069644419796095 -14.731234639063501 0.0
201 2 16.066512676084848 1.461735242947786 0.0 5.68074550224435 1.1307375926347543 0.0
202 2 14.216144777510186 1.9571779726903837 0.0 0.6792146416177642 -5.323098315984148 0.0
203 2 11.431715807484572 13.033315377847124 0.0 6.269365735988672 -2.5537421276085532 0.0
204 1 3.5454336380377733 15.755669016672842 0.0 -9.346495528762475 1.5758943442256714 0.0
205 2 9.801702516253734 18.27869520937954 0.0 -4.517269857000081 1.0215156922663717 0.0
206 1 5.09822017458327 5.698559111170175 0.0 -14.894856824272056 9.109717909336744 0.0
207 1 15.242017781674985 2.3692000312193326 0.0 -4.360005159814744 1.0044105682411681 0.0
208 2 15.390629268320014 10.853213334406595 0.0 1.8641359288180297 -0.16767151537013278 0.0
209 1 6.855448387902005 13.916858379364582 0.0 -7.883331355594674 -3.629093802402168 0.0
210 1 12.462264290644667 14.97728046923298 0.0 -3.280429237480245 12.460189384277653 0.0
211 1 9.21346932629107 3.0696036929799515 0.0 -2.2930901203911596 9.844732382611362 0.0
212 1 8.71266012986092 15.341740031960336 0.0 -1.6498787611503911 8.729190239898978 0.0
213 2 19.300226581523514 1.4670275715358565 0.0 -8.901979284020133 -9.111131869024128 0.0
214 1 10.039100888178792 3.959772695686804 0.0 -12.074136611397067 -1.4654685742501714 0.0
215 1 11.75858355910664 16.068577542086103 0.0 3.992028781265444 11.758224751633177 0.0
216 1 10.401247843396682 4.888118758582836 0.0 -3.2811422547493616 11.752227432184338 0.0
217 1 16.410249539890163 9.500984899131161 0.0 0.002914487931846716 -6.75763933503061 0.0
218 1 10.000124557500342 16.10381667915866 0.0 -1.3691105494646254 0.16929927908477949 0.0
219 1 13.686866591444229 4.583844641380005 0.0 10.451499625842503 9.788933480112382 0.0
220 1 2.4513271148375924 19.702219993931205 0.0 6.9695855094405585 0.2935767583999025 0.0
221 2 19.0802138864521 3.1582807708948133 0.0 -2.8172867328588613 6.061755629819018 0.0
222 2 15.538724365341665 0.2506027173208165 0.0 -1.909113115453852 -8.23359769028358 0.0
223 1 14.307292239438903 14.565556690247087 0.0 14.305361484659343 -6.19319859670595 0.0
224 1 12.023487306750129 8.124951050901503 0.0 8.026874078354368 0.10817240611596582 0.0
225 1 9.014437782241902 18.727625634537485 0.0 1.108113079432927 9.55922610539908 0.0
226 1 12.878820787550117 14.21925057103489 0.0 10.703541959860198 6.672801701580073 0.0
227 1 7.672354491781723 4.768183517158958 0.0 -7.675633066053447 -10.29251865918973 0.0
228 1 11.605474499500264 15.488009312730542 0.0 -4.629671333849249 12.823277022821214 0.0
229 2 5.147108027825356 10.089512102337238 0.0 -1.2043742707632987 2.663998762859699 0.0
230 1 13.944550143666035 0.03087693512157953 0.0 -11.140966550834882 6.129663942654244 0.0
231 1 15.053800905404382 8.228800663565817 0.0 6.825566988883206 3.5993234610067395 0.0
232 2 4.801203281188909 17.395635059910713 0.0 -3.9759553931769154 5.215657702280592 0.0
233 2 16.37342412001408 0.4088022078169987 0.0 -1.0350005589963658 -2.7292917107083228 0.0
234 1 6.848336595063973 13.355237563635052 0.0 1.8619489021493618 -6.219809150663697 0.0
235 1 9.841245851103896 11.817913553233405 0.0 9.957173853593341 -7.479284030806052 0.0
236 1 0.3806724195941571 17.25122989523643 0.0 15.000700194504743 3.2877442490799496 0.0
237 2 16.011893015226438 16.579867880852195 0.0 9.545510301275113 -4.340979182187156 0.0
238 2 3.097024252772944 17.897083778608238 0.0 -0.19020945738128273 8.271373967307458 0.0
239 1 13.99521834216114 19.13910337634392 0.0 15.875391022771401 2.491634378993495 0.0
240 1 3.467136768584041 6.917605542937757 0.0 -9.829306244282682 -10.687933047643684 0.0
241 1 2.629904530961624 18.651474518993016 0.0 7.959394003816349 12.509606793720934 0.0
242 2 19.48235719323098 13.064034203683208 0.0 -11.457085146275203 1.7038446212938667 0.0
243 1 5.427262973917624 9.123127873559726 0.0 -2.229184875110487 -8.043886329741412 0.0
244 2 5.458216299039266 6.366736395047592 0.0 13.136580999008808 0.9993264997976103 0.0
245 2 10.961723636047333 8.125577501024246 0.0 -11.811832755001252 0.4213923036985583 0.0
246 2 12.53376053054306 2.5382131302729327 0.0 -5.268383392674288 -2.3449076697489284 0.0
247 1 10.33515328733332 5.511948826868285 0.0 8.7877969803775 -3.78053273202413 0.0
248 2 15.459375510393826 9.851362896701879 0.0 0.9838603980527892 6.523225782083188 0.0
249 2 13.443269580173293 2.750863798780486 0.0 0.12970147602980892 11.397000273886688 0.0
250 2 19.272882825041673 4.173802965762484 0.0 -7.6576779637780374 -11.950353223564687 0.0
251 1 16.267196886910778 10.43095405851417 0.0 -0.8057048618453296 9.13452390567369 0.0
252 2 11.071716759960845 9.759276153966537 0.0 -6.0931555578366945 -3.266128988498173 0.0
253 1 16.57684342606881 14.710427477148286 0.0 15.874371116949632 9.712047698300056 0.0
254 1 1.9709126662087926 0.2714041316962534 0.0 0.6289255479679756 8.619357204638655 0.0
255 1 16.72107206123207 10.734813865011171 0.0 -7.146028595720452 -19.858476857014765 0.0
256 2 2.7479138072510967 10.435126066367932 0.0 2.21650959331537 -9.257044138182247 0.0
257 1 16.39348758971733 18.19888197622134 0.0 17.88261253223748 15.501392717577213 0.0
258 2 3.051692588460554 12.476630181925804 0.0 -4.378387291910995 -0.8197928993115323 0.0
259 2 12.924711635960016 7.423544552416003 0.0 8.483104405444545 6.173800084479463 0.0
260 2 10.042382613538857 17.32189796558497 0.0 2.849017688694979 5.70769962763389 0.0
261 2 11.71771442276872 12.114427994584373 0.0 0.26494595657260206 6.715141585115585 0.0
262 1 0.04494923145276001 14.198196323168396 0.0 4.147741066925981 22.874335834459878 0.0
263 2 7.845117355915369 2.3080379347027202 0.0 3.6613063461408784 8.763479104440032 0.0
264 2 14.156895013606206 12.88332570522415 0.0 -4.406054079338349 4.422604772004064 0.0
265 1 10.7491496185542 12.341542569911576 0.0 13.822750130296265 8.768312616270926 0.0
266 2 6.6559469623491365 14.947855196343065 0.0 -5.620898825858267 2.311695341847013 0.0
267 2 10.809657288585893 0.8109782724467792 0.0 0.35899889975565885 6.832860215966144 0.0
268 1 13.922913458542155 14.227547225047365 0.0 5.048961515099288 -15.700405688028832 0.0
269 2 1.9721929960300646 9.774015926080278 0.0 11.83483198598588 0.707967301323313 0.0
270 2 0.6689420445377491 13.356045406416667 0.0 4.576002274461796 -2.0008995262111733 0.0
271 2 8.654817106124826 1.5580728671012571 0.0 -3.2269058761585625 2.7779368339889188 0.0
272 1 5.389489904890536 8.607714536001543 0.0 1.8555660920791472 9.609149646107573 0.0
273 2 17.64585295054699 10.233760732160537 0.0 -6.956535431509664 -6.428270428469681 0.0
274 2 5.381118182431861 2.42241832260725 0.0 -0.43272038874088126 1.989259934519588 0.0
275 1 15.35296734076179 14.537005440503757 0.0 12.87629316209432 -3.1599481022534905 0.0
276 1 18.9155395433678 14.333907221534142 0.0 -6.833408577768573 -3.1938053029596074 0.0
277 1 16.474563930357515 8.746576275432329 0.0 8.934490949901166 3.91773425767903 0.0
278 2 1.1996126403740055 16.558148148510035 0.0 3.817921702629235 2.2344574567445927 0.0
279 1 2.1934896296990685 11.123639230264986 0.0 -10.491261213493075 -26.14230810237543 0.0
280 2 13.582270432519472 10.187148245899001 0.0 4.9127788789810785 5.750940061053327 0.0
281 2 10.408559265423007 19.22127708015296 0.0 -8.052034716399701 -1.892786734772446 0.0
282 1 5.780957101575871 13.49523677832726 0.0 -1.2253823438136118 8.01061652460742 0.0
283 2 18.50106723395835 4.7361374708738895 0.0 2.57407054638664 10.393441042319935 0.0
284 2 3.948682159857113 16.944983761225984 0.0 -0.5301523127112604 5.082278315150822 0.0
285 2 5.568837776715708 11.424584218709695 0.0 14.991076188194661 5.7748533425565824 0.0
286 2 7.503285734516174 10.862534409809486 0.0 0.4480291437502934 -8.47266632659441 0.0
287 1 19.604162010062304 9.620508389937061 0.0 6.685314381760238 -13.48866025531441 0.0
288 1 17.32348314312273 15.232774321453944 0.0 8.561692432400076 -2.4516364692838297 0.0
289 1 9.281856965435137 11.890249599485918 0.0 -10.07191804113653 15.834787170716753 0.0
290 1 14.568436740913993 17.415210032101264 0.0 -8.069453824496234 15.128406214645764 0.0
291 1 11.839887345731913 16.779436068494455 0.0 -7.65588851928194 1.4483247980096985 0.0
292 2 11.673467630555496 4.354980947195679 0.0 -5.732532201186071 -2.400648258123402 0.0
293 1 12.901440481699808 10.592816199417046 0.0 9.725491019559882 -14.29944451870674 0.0
294 1 14.376422236301602 3.9512349347638196 0.0 -3.102712127011531 5.331662773232442 0.0
295 1 7.512073717331461 10.095698688635988 0.0 6.185089308859886 -5.11519168417396 0.0
296 1 17.371569177338486 2.179894490678502 0.0 -7.347205670931746 -11.432250647012422 0.0
297 1 18.98652895991339 7.537787163191492 0.0 2.7896555086957195 10.524271379645258 0.0
298 1 6.128194944715016 17.729818232217873 0.0 -4.463249097852995 1.415801307459657 0.0
299 2 8.0058817028582 7.062976721825466 0.0 -7.6469228611031035 3.524164982119906 0.0
300 2 4.097000656993265 12.875523756292637 0.0 -4.200293794045791 4.0223779188041595 0.0
301 2 10.093157309744798 15.269382092413124 0.0 -7.441585065057537 -2.6853431605231295 0.0
302 2 19.266888079166822 11.86988637197591 0.0 4.132121306866607 -3.7406216570276976 0.0
303 2 12.649524266484944 9.277924458611535 0.0 3.7394346871141595 7.953866667242376 0.0
304 2 9.438351622677585 13.445736574547949 0.0 -7.905649494754412 5.016311616577981 0.0
305 2 19.556204079822496 0.36076192837551824 0.0 -0.24889135464249462 -2.6721592266894816 0.0
306 2 14.869781490806368 19.10965315078369 0.0 -3.5467219283866807 8.141207694516119 0.0
307 2 19.13363067147255 6.672364362727606 0.0 -8.650363334454838 -4.939288280508136 0.0
308 1 2.1914774570689017 19.213129801040843 0.0 -3.6223828380281637 0.6070881095278691 0.0
309 2 15.042023674149824 5.724628744583178 0.0 6.753174840700629 5.933916883281585 0.0
310 1 11.900589878201638 17.987273354314162 0.0 -2.611458087482098 -4.52388807362791 0.0
311 2 6.045811933311718 1.957199117675046 0.0 7.611286687608095 -9.569143562202905 0.0
312 1 0.37367506581011356 15.280001899575756 0.0 -8.037488813327586 9.749615903481052 0.0
313 1 8.747872509412574 3.4890148731946287 0.0 10.533364238498969 -3.4246944948511024 0.0
314 2 11.233576208402086 10.968113667291307 0.0 -0.31232862916021203 -1.6470841622860983 0.0
315 2 16.568455559498208 3.0980146272973172 0.0 2.112023388297774 8.181659727710956 0.0
316 1 14.317502870864148 0.7381665549605583 0.0 -4.58209728793781 -1.0383778044273522 0.0
317 2 13.589322742648303 8.234727041143318 0.0 -2.8072876898509054 -2.10236772696369 0.0
318 2 3.9885149067752006 5.084230346027703 0.0 5.564407414298133 4.117972752170963 0.0
319 1 8.387135599980958 18.902883398642256 0.0 -1.7751218099005883 3.790992297679588 0.0
320 2 4.461562684736187 11.811101111910387 0.0 3.283272153200218 -12.768675707440432 0.0
321 1 7.785208735076515 16.709701054624038 0.0 -6.105254939214718 17.494572663576477 0.0
322 1 15.243659825788146 15.242964209182292 0.0 -1.8892524171006442 9.575893491498869 0.0
323 1 7.210883359684083 7.087442765721702 0.0 5.04716821055266 9.112212751483861 0.0
324 2 6.2706905951495715 10.898746299345076 0.0 -1.1538063728139918 1.5420593977702515 0.0
325 1 1.08543512272558 6.208466192430941 0.0 1.1315397385777812 0.47245989717366293 0.0
326 1 9.279554556306827 19.672766711666014 0.0 -17.163713076454396 15.946281913424357 0.0
327 2 1.9346154713373018 8.811723259421141 0.0 1.1759202946612115 -2.921176287711451 0.0
328 1 2.6130699900063816 11.562483620953095 0.0 -12.69530998101916 -12.92620883724492 0.0
329 1 9.83151061527368 10.269065324151006 0.0 -8.499153941006794 -4.1023658144936155 0.0
330 2 2.136870948155846 14.49467068404789 0.0 -6.800188761041546 5.61885546194943 0.0
331 2 13.289036792033448 16.181138273957636 0.0 4.363543381966751 5.7309412066828145 0.0
332 2 3.1992256289790415 4.46236190456037 0.0 0.5133298882129703 -3.3497647323861353 0.0
333 1 16.741203757943765 11.796448952403596 0.0 5.791533123973655 9.47489682632539 0.0
334 1 17.835282646400483 11.932817328513895 0.0 0.4009179906068593 -10.051235818821446 0.0
335 1 5.563849313202103 18.900422236764964 0.0 -2.9797031596219807 -12.893646521406339 0.0
336 1 11.448634947976943 7.382064000511287 0.0 12.602522225934898 -9.835327382583891 0.0