ITEM: TIMESTEP
0
ITEM: NUMBER OF ATOMS
400
ITEM: BOX BOUNDS xy xz yz pp pp pp
0.0 19.7609 0.0
0.0 19.7609 0.0
0.0 10.0 0.0
ITEM: ATOMS id type x y z vx vy vz
1 1 6.758255597964918 10.252560506968893 0.0 12.87949607683958 -4.00567351765409 0.0
2 2 1.007506094416572 19.109546208544728 0.0 -12.238647667279665 2.4058934345304404 0.0
3 1 3.5566383822251733 3.6133126013721193 0.0 7.815977735514533 1.9724294960968574 0.0
4 1 5.833795066158793 6.389096932354624 0.0 7.6774726311027495 8.62403925819529 0.0
5 1 5.552586767467882 14.772537997804022 0.0 -4.188801112876945 -1.7386431796165842 0.0
6 2 11.737658070190662 6.889246073213855 0.0 4.5808103959720246 -2.00265927184586 0.0
7 2 2.0743806301092507 0.6830156564368713 0.0 -3.8437172271154623 -9.692290210232988 0.0
8 1 4.267289697906869 0.9590184142284297 0.0 -4.339004044393045 -0.631696615587622 0.0
9 2 11.42075935717657 18.470806346335806 0.0 -0.10525594774169307 -8.380514763446234 0.0
10 1 19.689425732525027 14.754533187482707 0.0 -13.264454737996106 -0.1235224295620796 0.0
11 2 7.553495735305256 15.210417063076845 0.0 6.1206243029395 -7.937321676460256 0.0
12 1 4.707329830394806 14.486525562898308 0.0 -4.514208788908859 -4.3863589718281775 0.0
13 2 12.781758869983761 3.622783674774995 0.0 -9.288696761481845 2.2085516204453928 0.0
14 2 2.9206972253374124 5.119803112954464 0.0 0.4508347059343425 0.5178334937791804 0.0
15 2 16.36063446224611 7.243803477934536 0.0 0.5919350898895954 2.1843192514069614 0.0
16 1 5.567382416198531 2.516019549457977 0.0 6.651966759881849 0.32587314113333277 0.0
17 1 11.552963130255232 3.8153307616015817 0.0 -11.512898003805185 -10.473468201434947 0.0
18 2 15.107498994458796 4.870424627530038 0.0 -2.034378757050563 -1.1343577890879837 0.0
19 1 7.265942977475382 12.424569945429933 0.0 -0.3301965447280814 2.966449551719604 0.0
20 1 14.890295739152705 14.574581999962056 0.0 -1.80639910160701 8.503626153855244 0.0
21 1 10.308712766090006 16.732126384830195 0.0 7.837810751681897 -6.941311596104045 0.0
22 2 0.6124752119386411 9.61970856586164 0.0 -4.543715934678837 -4.167769265960275 0.0
23 1 13.683073496597366 17.8997042328213 0.0 8.052790706060465 5.06886091004162 0.0
24 1 16.84447346486546 11.03957711615637 0.0 -7.438507717248946 -2.478971266645929 0.0
25 1 1.1400085503222372 17.54145736022456 0.0 -4.098749841944121 -6.691301964347059 0.0
26 1 5.867396991487278 10.83017521808309 0.0 -5.733761222513838 4.5975617749301545 0.0
27 1 1.7155043319813328 15.489074742601325 0.0 3.317579903516776 -1.2134018728753075 0.0
28 1 10.400725253173828 12.726099235601401 0.0 14.732686652445587 13.069550103272805 0.0
29 2 3.5703423466355173 11.652433031397292 0.0 5.685496885296329 -0.7711331177094016 0.0
30 1 8.211642476361625 12.955931967251182 0.0 -9.574545393321328 11.506698928556721 0.0
31 1 19.231678853375755 0.2739458541523157 0.0 2.14720466568369 5.420750923698749 0.0
32 2 0.05734184366422613 4.0737048678417045 0.0 -3.3849614151577825 3.880338166820365 0.0
33 1 12.350927777122246 0.5705573270854217 0.0 -5.176322437493147 -3.2872906734634797 0.0
34 1 15.33063109002306 19.522730821928093 0.0 -0.932031176176335 13.088579263897255 0.0
35 1 16.160285936228526 19.10311514587692 0.0 10.14906226750189 -6.265647048639863 0.0
36 2 12.647555350445064 6.414357579664037 0.0 2.729626534884239 9.914030112371506 0.0
37 1 15.83663297327109 19.45759745043719 0.0 -1.6304746272097523 -5.796848698162235 0.0
38 2 13.486530936568993 5.520132949038173 0.0 -3.6799392886436793 -8.787494255795378 0.0
39 2 4.895801999630717 18.810759323176963 0.0 7.844039158704132 14.184169513535254 0.0
40 1 8.372192709780986 8.00821427659228 0.0 -12.403096772458309 18.960422158167646 0.0
41 2 3.4394651606241444 12.600550315765629 0.0 7.647617931687258 -4.132320556991215 0.0
42 1 7.5408686653478085 4.015381788251327 0.0 6.8958573999056885 -12.855506297421497 0.0
43 1 6.409236091646296 3.9605409183511195 0.0 -10.131838792044917 14.91634632811906 0.0
44 2 2.016279445881993 18.902659288594368 0.0 -1.7230185335029993 13.209358110769482 0.0
45 1 8.584897408152502 4.977338010677524 0.0 -9.677025864067254 -5.195550978980128 0.0
46 1 17.01046586279314 1.3307590292465339 0.0 -3.296334888270173 -0.311966324769997 0.0
47 2 8.372859655157873 10.648378354906484 0.0 -11.048285356741324 -0.05193123049367152 0.0
48 2 14.164423906430164 15.70267602815548 0.0 -0.17352282276447759 -0.8414790469045708 0.0
49 1 15.829942950046 9.671244455477664 0.0 -0.39939151432294195 5.350857779242301 0.0
50 2 0.007136898699099599 12.85477942860349 0.0 1.0949499183055498 9.167064208496013 0.0
51 1 10.77154967995402 3.1775241270365933 0.0 7.540275945855194 -6.965513204028175 0.0
52 2 7.380245273415486 1.3182099440754174 0.0 5.168066791206155 -3.9480572804149574 0.0
53 2 2.0759278702288877 16.185467521695287 0.0 -6.059956509124419 3.1018917735365474 0.0
54 1 5.938301575954232 5.192137493387062 0.0 3.3991274148310597 -10.024241036663637 0.0
55 1 7.094153608236104 8.997684618297633 0.0 -1.8382453168453374 -2.4967315292091397 0.0
56 1 18.27824568764311 18.437777433578706 0.0 -0.01540820191622996 -3.5534143156098597 0.0
57 1 10.664607129539803 15.74716149843944 0.0 -5.137177208587568 6.042094414006142 0.0
58 2 3.800031389812346 17.774434638228897 0.0 -3.3922060929678635 -5.851412837205514 0.0
59 2 4.778381818834569 10.24042868201768 0.0 -5.45699903082006 2.619815311056843 0.0
60 1 9.575016525592824 14.742175577821659 0.0 -3.1684079628111683 -4.031706345551749 0.0
61 2 8.51361320763742 9.754712572229959 0.0 4.257426292791579 5.547307786656269 0.0
62 1 13.753278526089142 8.429161829520163 0.0 -1.7085829693341414 -8.111983978474344 0.0
63 1 2.8732898533320848 17.403411873424968 0.0 2.985268755242732 -21.231963994501665 0.0
64 2 7.520743029096263 16.97440700265093 0.0 0.5179430641125868 -2.0714842730156877 0.0
65 1 14.915627046612927 1.978785201509892 0.0 21.209534998194705 -7.672186151330233 0.0
66 2 12.260591564210094 7.727681817696007 0.0 5.306047861843982 2.8368220340748773 0.0
67 1 1.5386521218686282 19.71845849328115 0.0 7.162876258789963 3.539433435561022 0.0
68 2 2.5011702643627154 6.721634421770544 0.0 9.60947419492652 -2.6783363050182394 0.0
69 2 14.784752799332528 6.151963794981112 0.0 6.313852336361895 2.6796180624281054 0.0
70 1 0.37098308259836543 6.229330281595409 0.0 -2.8622478912654845 16.73689617475716 0.0
71 1 5.5201036882830365 0.7229053941558354 0.0 -0.9268406184423295 -4.736889453761731 0.0
72 1 8.557734068862652 4.402529439865934 0.0 -1.6014388913853543 -2.391822144430951 0.0
73 1 14.072033247906253 19.145890179079398 0.0 -1.4547169096773798 3.2462906097144346 0.0
74 1 16.630561737690222 1.949578789908431 0.0 4.095275410913736 11.190657831987336 0.0
75 2 4.710350181060365 8.420384927098336 0.0 4.419820177091352 2.4255416389439235 0.0
76 1 0.6235175527297963 13.85153207192072 0.0 -1.871310421543276 -2.4981132306010845 0.0
77 1 13.802461778975358 4.752408155660726 0.0 -8.143326794599094 0.5703175754621875 0.0
78 2 11.815896658735562 1.3352534811025885 0.0 -7.296522734827555 -1.8634910591053504 0.0
79 1 19.292855055259636 9.349677014737233 0.0 -12.756648068425728 0.02104428847467883 0.0
80 2 12.5653755543793 18.7936973872774 0.0 -7.300472126435876 2.3288154638944083 0.0
81 1 3.7068429533336813 6.703627152935762 0.0 -10.963494608941698 14.400877635918757 0.0
82 2 6.684502470243537 4.848558323831731 0.0 -5.722597896941543 2.699933087818468 0.0
83 1 10.171526906110824 15.258466931240681 0.0 -2.5021990763713298 5.812512755999251 0.0
84 2 1.7698735776764285 4.323038080026045 0.0 -3.1837143059738158 -1.5718266616445828 0.0
85 1 17.898020050307206 12.591516275529052 0.0 26.32202660796285 -15.992283422846743 0.0
86 1 12.36002212495889 14.475066807690675 0.0 1.8866164810285457 0.6479125415007361 0.0
87 1 10.774776320321052 0.6369339770026823 0.0 -0.623444762463745 -3.0046369913718944 0.0
88 2 6.343008937704577 18.704097206317325 0.0 -9.926899068859742 1.652501151591981 0.0
89 1 7.462129671174275 12.906336768102676 0.0 -6.558543414690015 10.145174080040293 0.0
90 2 9.081915185648151 9.009570251971345 0.0 -1.4835162996745017 -5.323425765012797 0.0
91 2 1.6081177190535505 6.459039098826477 0.0 6.163171616428782 4.747074321957437 0.0
92 1 5.695576390740133 7.545596327162475 0.0 -1.5250869757229564 17.835121936487223 0.0
93 1 17.675196218145594 17.055345893326443 0.0 -3.8946918419639953 -8.226565813714274 0.0
94 1 2.703675326893425 14.412541216271354 0.0 -5.8864891700637285 -11.702388254321566 0.0
95 2 17.782114973904893 3.289212714813947 0.0 5.741965172560171 1.6648014475906405 0.0
96 2 14.536164316522251 8.584240792918159 0.0 -5.306751238634888 -3.9228779654238553 0.0
97 1 17.542315401479573 9.117213438253108 0.0 -8.910951428304465 18.057182219471184 0.0
98 2 18.853844193515734 14.596465709978455 0.0 -5.438247581267592 0.5920009141812321 0.0
99 1 2.571745809724799 2.6272066960553735 0.0 -10.456259948202764 -10.92062776640571 0.0
100 1 17.381872990862703 12.813117208742266 0.0 -2.8474492885635607 -2.976767727285686 0.0
101 1 13.263648229546588 14.797169798831279 0.0 7.693477151187139 4.058601473209555 0.0
102 1 0.3737803878821887 3.1284340150974717 0.0 -5.446016281432327 12.153005049439251 0.0
103 1 15.468914001574714 8.888476694298067 0.0 6.668571497901306 -3.0322555628360814 0.0
104 2 11.21012774416333 14.356643731343778 0.0 -0.1970648612227018 -6.3398386360175545 0.0
105 1 13.4239716913137 18.458057153235213 0.0 -8.779213971456542 -0.5853929916783537 0.0
106 1 2.8774304303637366 15.613496480507898 0.0 13.808985680644279 7.529291820724322 0.0
107 1 0.4924392572614423 7.452334393704339 0.0 0.4513939434854849 10.561633857946662 0.0
108 2 5.614387330468422 9.676424734815754 0.0 6.262153247556257 -8.14307896264113 0.0
109 1 5.047567861647064 7.753566396622828 0.0 -5.430868976188389 4.21052748927414 0.0
110 2 18.368914529721668 8.111859749661903 0.0 1.9272539942181135 -4.527153407876548 0.0
111 1 4.174938085483686 4.854150911485258 0.0 8.91918428690569 -0.31978475953130836 0.0
112 1 2.8516574722128194 14.860628216838949 0.0 2.3690277721561417 -2.525801314658105 0.0
113 1 16.54312738899794 15.394732283159046 0.0 -8.545943144552899 10.696358644678032 0.0
114 1 15.181330496151196 9.84797791681679 0.0 2.74446682954743 7.120367057964307 0.0
115 1 4.293055351133611 3.0112110890138593 0.0 5.977818905715528 -7.524718511878086 0.0
116 2 10.593877633631186 4.6245936577166 0.0 -6.9877339251497075 4.270318353448267 0.0
117 2 14.186072909310797 1.65791337480942 0.0 -2.104672391981767 4.803428292255608 0.0
118 1 13.841046760233406 0.586831596457741 0.0 -12.512768699989111 9.526656770087767 0.0
119 1 3.031171599324264 10.00128426598141 0.0 -21.567482534458662 -5.5553243648258634 0.0
120 2 10.58578277414932 9.138374027716019 0.0 -1.1125566668135969 -9.385013119068836 0.0
121 2 13.658387094227425 9.478867392652583 0.0 1.5521401827971473 -10.483761461157536 0.0
122 1 4.735005460019476 9.441265873744072 0.0 -5.889734491405208 3.625661647542083 0.0
123 2 14.859204741100795 1.12896850155531 0.0 -1.048359706206164 -3.9640778012983264 0.0
124 2 16.227396668559486 3.461826300136635 0.0 6.158121621578242 7.885529245856377 0.0
125 2 16.643032604430946 12.288206356208832 0.0 -1.04967630753624 -11.50336518561106 0.0
126 2 0.09434283515791679 15.863458177500352 0.0 -0.7900463439871979 -4.291547847811872 0.0
127 2 14.337654785018016 2.9258989537442446 0.0 -6.933608174222359 2.692831669197942 0.0
128 2 18.028425199326918 19.35251301884664 0.0 8.036237567185939 -8.11504395913672 0.0
129 2 1.100233487460047 12.490880917668205 0.0 -0.7103441646993451 -4.455156089819714 0.0
130 1 15.87675228902033 14.002050452464506 0.0 -7.569363506269264 4.807846200276831 0.0
131 1 12.800363148087524 9.415438148945892 0.0 -2.170718895216533 7.012169994042787 0.0
132 1 3.090030615675363 19.04721248433263 0.0 12.803145789524406 -7.049189275425716 0.0
133 2 0.6969685139795624 10.57460348280451 0.0 9.1900593415604 -13.27759324187698 0.0
134 2 4.829436634789638 3.968239353181622 0.0 -5.785033577225846 4.029358605844613 0.0
135 2 12.684832371525255 15.60511423976293 0.0 9.695901646007986 5.264119648215765 0.0
136 1 5.8155723768477925 11.741040589100212 0.0 0.7230741597953858 -2.866258204313885 0.0
137 2 4.972774072835091 12.310328374366321 0.0 -0.5829426861176958 -5.238712879057123 0.0
138 1 9.857258114215218 4.050443937172101 0.0 2.704044578070756 5.8976266816791645 0.0
139 1 0.8614449131945912 6.737070594305281 0.0 1.1228845968658168 -13.374959351442032 0.0
140 2 4.3076936353009145 15.132298017292273 0.0 5.250204014785481 13.630233930533503 0.0
141 2 12.115796887441379 9.788158858445385 0.0 7.529594109920804 1.7854664607289574 0.0
142 2 7.032052917670021 19.320018774333487 0.0 1.0468999730320456 -7.384363494872221 0.0
143 1 3.148993739670911 18.177962653302394 0.0 -9.804953520014612 13.045977569766894 0.0
144 1 8.745409938484757 16.313192831024647 0.0 16.736689174524322 0.8559764152270819 0.0
145 1 10.22052091619191 2.0612554825705875 0.0 -18.217877160425445 -8.358095245834553 0.0
146 2 1.6373106333655292 8.777904568837648 0.0 2.5906107346124663 3.8229470990236414 0.0
147 2 18.800110071133158 3.5286428601813857 0.0 3.940795249198801 4.020756502772051 0.0
148 2 19.39028577087349 11.153146770384875 0.0 3.8156078352079734 1.6667770615898267 0.0
149 2 12.869910584365751 13.129074845028459 0.0 -4.863649546493842 3.1849605471077127 0.0
150 2 15.08935127212147 17.279689372959535 0.0 2.1596023530173407 -5.522949696543693 0.0
151 2 19.261673521714336 6.690322084898081 0.0 -3.275987646750168 -2.450559741968382 0.0
152 1 1.0048539634658165 7.612400965761895 0.0 -2.7240572829013914 -6.379825459261199 0.0
153 2 7.0707085420033895 13.983020732000346 0.0 7.071206399880346 6.458649831519462 0.0
154 2 7.729476683815893 3.231121995305136 0.0 -1.1768634448918813 8.407308217209238 0.0
155 1 6.875003657252838 3.237148638441117 0.0 2.91424148940707 -9.135945983429291 0.0
156 1 2.0848102597824143 15.242459159180926 0.0 -8.215075050263103 11.47622065117053 0.0
157 2 7.08772393105896 18.202332235889767 0.0 9.597697918703616 4.617931186340127 0.0
158 2 8.895409973989121 7.092654200969382 0.0 -0.876735561937542 -0.9429643166462219 0.0
159 1 5.062172841330005 19.653913172448043 0.0 16.15061089894525 -3.4727624247417443 0.0
160 1 6.890444755262914 8.022523834390384 0.0 -7.754278811764034 -4.384688460791827 0.0
161 2 1.8954225813283354 11.757100852577413 0.0 1.372415535939874 2.0389071246391626 0.0
162 1 8.523596599865627 17.007581967388457 0.0 1.5148153284097536 -2.6974076265200466 0.0
163 2 8.553469533310512 11.577855801988722 0.0 -4.980586494212165 2.9452085389418663 0.0
164 1 13.454793030474836 12.213170965863936 0.0 7.186807390600328 -14.946161085974499 0.0
165 2 10.983662260294837 9.949866195526479 0.0 9.334945415602604 7.7108332011356175 0.0
166 1 16.886423262889846 4.774236672308938 0.0 7.415702616796588 -17.154902215801915 0.0
167 2 4.059381631040789 2.1533894123499655 0.0 6.924219609872575 -1.2801599543234845 0.0
168 1 14.196697772553506 13.51832177697371 0.0 -2.5193197481552088 5.020956786396154 0.0
169 1 18.740256182632898 4.508063206720061 0.0 -1.3655037576603941 4.196921214128804 0.0
170 1 0.7749856032592346 2.794686583625747 0.0 14.839320137055433 -3.252407841114022 0.0
171 1 1.453939701469779 2.0553027017615375 0.0 -2.111670802208354 -13.453625727537638 0.0
172 1 10.943318014649863 16.259133458159532 0.0 4.840414797500821 -0.9572189390191604 0.0
173 2 1.513623481955291 13.180492548612504 0.0 -1.7857902585398093 -2.1751108697749344 0.0
174 1 6.713675480434455 9.497014100148306 0.0 3.7814140098276843 3.6490041682928704 0.0
175 2 9.253750931215363 13.829582524456711 0.0 -6.850717104406481 4.431205247767067 0.0
176 2 14.607983507690795 0.14917227981943518 0.0 9.381214955940541 5.866158270504721 0.0
177 1 3.441130002304939 16.1768914794534 0.0 -14.245001635234386 9.649192008064484 0.0
178 1 9.45299086527458 11.775606812733752 0.0 -3.476568747540067 -8.169700494876926 0.0
179 2 10.257366533301479 8.267128907436291 0.0 9.00634907462778 -10.370062362325566 0.0
180 2 5.607845793987066 1.6342168754924637 0.0 4.281728955172429 2.2620579798016807 0.0
181 1 18.576281128488336 17.570835009639357 0.0 3.166237148636671 0.15212711076604155 0.0
182 2 3.8429856358960492 5.523208613793889 0.0 6.760465759574261 -3.832586701921328 0.0
183 1 10.987297482214206 13.454108237041883 0.0 -10.628623828537185 15.569306810347847 0.0
184 1 6.223136413486573 3.122102272985821 0.0 1.5165846930877442 2.7427724673992033 0.0
185 1 13.16056111212033 0.46911313266907495 0.0 -10.972577266055579 6.86869098797947 0.0
186 1 4.025654514796626 4.061213663165532 0.0 3.7213319404626417 1.6411164115105108 0.0
187 1 3.2485364401558927 16.808714892283117 0.0 -5.8273320555718735 6.775262258073157 0.0
188 1 3.6724875043707117 0.028039076272624794 0.0 -10.463119151354155 -14.450924302317244 0.0
189 2 5.0587663692701135 15.896210119353288 0.0 7.351021945164754 9.763419696920128 0.0
190 1 13.146801563830747 17.94843047735963 0.0 4.233660902073109 -15.948107993066602 0.0
191 2 4.351465735296096 13.810491047497626 0.0 0.8377060668021619 -7.716089156746339 0.0
192 2 8.44018301745052 14.676808074000387 0.0 8.801216997785138 1.6573994111675863 0.0
193 1 13.621073664548472 13.724166054361751 0.0 1.380657949400346 15.547774097058392 0.0
194 1 2.347896051576088 17.30073524217004 0.0 -4.2326310914269 -5.13817600830469 0.0
195 2 10.806848823198717 6.37568643808739 0.0 2.8203662818833273 -1.6281109197105244 0.0
196 1 5.95589523041704 4.479123845632958 0.0 2.680875182047055 -4.1147751144584985 0.0
197 1 7.299553524591282 7.265219472976346 0.0 -15.299394334803427 -3.811097932875811 0.0
198 2 3.6698594852780158 14.359695921392634 0.0 -0.5481103603820809 -4.533857488605694 0.0
199 2 11.838209829265507 16.375273586306072 0.0 4.9052333544773505 3.7564541444541524 0.0
200 1 16.451410770447545 17.621024003053847 0.0 2.4123143691765687 3.030517996655058 0.0
201 2 19.050578004470772 12.104877069471966 0.0 -10.751896862876066 -2.694991736809247 0.0
202 2 14.357865290220285 10.59133590703172 0.0 3.3314912799836507 6.455815187134269 0.0
203 2 18.92874401623846 19.12406159992662 0.0 5.6194258583835905 6.00017565813985 0.0
204 1 5.013373095518545 0.9977841799404756 0.0 -2.3400345694601996 4.985118914419705 0.0
205 2 10.873130716920894 12.091917140255909 0.0 14.491105006226524 -4.252355642521783 0.0
206 1 5.349734185493457 13.08693693404433 0.0 -7.679935294691318 -19.8694119437879 0.0
207 1 15.125382648563809 19.031995915000316 0.0 -1.1233767670558283 -2.0228277589175776 0.0
208 2 11.282395367078042 11.126073575582586 0.0 4.668567029617178 3.3259648861879874 0.0
209 1 4.006900470804287 18.858486785393595 0.0 -12.554116707560166 6.183463506909508 0.0
210 1 16.832658838851813 4.194356648714133 0.0 6.598109700460502 -14.08673175090658 0.0
211 1 6.1965142768687365 17.432785700450882 0.0 9.928556738182332 5.453749120984417 0.0
212 1 5.3536737958672695 14.3160398255296 0.0 -7.465562197193397 15.247690844599102 0.0
213 2 18.353235630449234 11.293390602047182 0.0 6.808065480748945 9.739843220536915 0.0
214 1 5.032180628696547 7.104965991331809 0.0 -0.5638884541218844 -2.486497658721068 0.0
215 1 16.34362364297914 5.993365161794636 0.0 4.482791800665114 10.176735291721696 0.0
216 1 17.54728270389524 10.733630470545336 0.0 3.2732552908870343 11.478833445983343 0.0
217 1 15.57687772726871 7.892515243203547 0.0 -1.3966623710356718 11.500414972356626 0.0
218 1 13.43096024292152 19.26648000894631 0.0 2.0115807547686435 7.575377979598589 0.0
219 1 15.485691126247197 10.201780713157008 0.0 13.6122486637684 -6.763301361553494 0.0
220 1 12.251051019760803 17.402081742965102 0.0 -2.009960332685344 -2.143761601844427 0.0
221 2 9.094499770609739 12.958468585442159 0.0 -1.6431907450145762 1.0248452422330245 0.0
222 2 6.3584686459022315 2.2264944963357634 0.0 8.658143246524052 16.726255733003413 0.0
223 1 14.261995238013737 18.522596435873734 0.0 1.2504452922343594 -5.77895449702254 0.0
224 1 16.508962019495037 10.530451338826456 0.0 -14.01285655898014 7.534871160282018 0.0
225 1 9.831887332368456 2.758878900746209 0.0 10.677101453394043 8.67982548706208 0.0
226 1 16.719854618455084 14.50743939584645 0.0 -13.886568668539296 -1.4210426490556354 0.0
227 1 17.091246750044895 17.09510530295867 0.0 -7.849004990571286 -6.917574990135102 0.0
228 1 10.325194620929363 1.117217086740952 0.0 -5.015629394084378 -4.01689861276441 0.0
229 2 18.385265691844527 15.539146554460618 0.0 10.721985391888273 -3.6038327810737196 0.0
230 1 17.422816040197347 7.168519356718939 0.0 -0.887863136556566 10.866282986680131 0.0
231 1 19.082882285513872 5.505828859472265 0.0 1.7938817840900982 18.346726205590727 0.0
232 2 9.086209613245186 0.0786233308449277 0.0 -0.1287838109398157 5.4997662250487025 0.0
233 2 4.6845371865709255 6.3823502795998355 0.0 3.600605827345328 11.852868611941524 0.0
234 1 14.421353724215003 14.160026712703193 0.0 -8.188146580624611 -2.8522012681409126 0.0
235 1 10.949448545000804 1.2567673419137007 0.0 -11.128288889964988 3.6930805084396563 0.0
236 1 10.143192082024854 11.921489303259447 0.0 4.722068750200503 16.732434274338797 0.0
237 2 14.787759305485592 12.685285675469709 0.0 -3.047608073405443 11.604636974414795 0.0
238 2 4.707196312158145 11.548447398702475 0.0 -2.657243785818489 -1.1402552849402843 0.0
239 1 16.20966264935436 15.96460440534352 0.0 -3.602502175438254 -7.379409879066089 0.0
240 1 1.867883327124527 17.139752292483557 0.0 -8.747056909712143 0.6574640362440604 0.0
241 1 5.814675380919093 15.46606949150847 0.0 5.3201977274476295 10.739767053943346 0.0
242 2 7.61083525295478 6.39379898374799 0.0 -7.387017537255572 14.236822260640135 0.0
243 1 3.1742984482543193 8.991824615551963 0.0 -0.39293403772252244 -2.0721385197581244 0.0
244 2 12.017448759355863 13.782812620498877 0.0 -9.629401241170038 2.0296077466313167 0.0
245 2 2.924079161398553 13.59652930974225 0.0 -9.181854478135671 -1.7897655308379803 0.0
246 2 10.90402199074725 7.2930871557558765 0.0 2.9250196991907824 -7.331443686730471 0.0
247 1 2.5056253992289803 5.72857628126296 0.0 8.162924666563443 -14.17238803270392 0.0
248 2 0.32126429552438673 17.421733029060494 0.0 -12.857021013710096 -3.3103175740697175 0.0
249 2 11.810632928539105 12.38026837239988 0.0 -8.489445482335054 -3.0370822149389705 0.0
250 2 17.521697293997384 16.027436840018225 0.0 -2.624394419899348 -10.30579904681857 0.0
251 1 14.49059977731807 17.729197717998225 0.0 0.31627330168842843 -6.785698167061854 0.0
252 2 0.4705549918589196 18.299585372250338 0.0 5.323623812896651 -1.985358340791282 0.0
253 1 2.4183180026668913 8.898511183707726 0.0 -0.888412456268984 11.496246508302985 0.0
254 1 9.681195099242109 18.97329557221974 0.0 1.4522901745524828 -1.854929423553448 0.0
255 1 4.4212273379650675 19.728214842674987 0.0 5.962616488414623 -15.781353210415823 0.0
256 2 7.848670537449685 4.864384659463875 0.0 9.277291047576153 1.3316437188323165 0.0
257 1 15.109875472634918 15.328234785861783 0.0 -6.870163886529631 -4.739188325702885 0.0
258 2 1.4695058805775894 14.385124977257465 0.0 2.798809041700126 11.18459948703874 0.0
259 2 18.385171534522232 10.514909160479572 0.0 -1.253650581874093 -10.363585737329586 0.0
260 2 13.770001169161816 3.695610243100002 0.0 0.7560191955946797 -3.7596459049958257 0.0
261 2 13.443187734738082 10.550243637248428 0.0 4.946348544580419 -5.283222677877981 0.0
262 1 1.0324340542768988 11.686635192111037 0.0 12.613989153259464 4.351828408122664 0.0
263 2 2.1512169450477674 7.6622778985088935 0.0 2.165461162285699 2.0486234224590887 0.0
264 2 0.6234338806679712 0.7052858034682243 0.0 -1.0154212741646287 -4.685402879187619 0.0
265 1 6.851741044355452 13.084294607991074 0.0 -11.98608404842234 10.539021719633663 0.0
266 2 6.618087746389914 6.950638272201366 0.0 -8.467313108811183 -11.417228643222126 0.0
267 2 3.4463165612727047 8.208591707319862 0.0 -1.2638009952942262 -4.087503439048336 0.0
268 1 12.746464637099471 2.167000061633445 0.0 -16.719180634656787 10.694669591826464 0.0
269 2 9.393772211402288 4.810786260778515 0.0 7.8533591376378675 4.798707636484912 0.0
270 2 12.422453646133379 10.586357744771473 0.0 0.6882065297436736 -2.926443223800832 0.0
271 2 9.677358478268813 15.982380715895683 0.0 4.552190134230133 -0.4880492021650745 0.0
272 1 16.397628022953697 8.128180821308838 0.0 -5.228538497299462 18.43291528677494 0.0
273 2 17.217110542131106 5.8701768389359135 0.0 6.495794036737674 -3.5233489856839846 0.0
274 2 10.165731667049123 13.599907922671488 0.0 -5.609375978636809 -6.713233780447832 0.0
275 1 9.011313927334685 17.70100008251622 0.0 -3.9199884001537653 5.744355041478051 0.0
276 1 6.051460992903838 16.43945176582343 0.0 7.838497584155738 -2.669561720569759 0.0
277 1 14.531134131600371 11.68645592274322 0.0 6.826403803394702 -2.5290813986563005 0.0
278 2 16.9961782700462 0.051222635019278734 0.0 7.110374335444046 -3.459786621011475 0.0
279 1 0.05065813091832312 14.253315517375306 0.0 2.262266278322286 1.1620033667235332 0.0
280 2 18.79552155066576 2.324781805667742 0.0 -6.601068318399325 -5.791107175867075 0.0
281 2 15.668277065158149 12.029141427081516 0.0 1.4851470214074225 -1.5123267326637844 0.0
282 1 14.89697332065862 18.56915709054823 0.0 14.883164073509382 2.5400697201395834 0.0
283 2 5.546231500088616 8.671847472222108 0.0 -8.541633683706733 10.269441996362072 0.0
284 2 18.320370866090382 6.16491305150039 0.0 1.19493647443648 3.142158306784695 0.0
285 2 17.857892957230433 14.758106205613513 0.0 4.540727125980647 -0.9718492835438896 0.0
286 2 17.0253805810225 2.812905861733271 0.0 0.672237112932709 -2.594649711486401 0.0
287 1 3.547380344594572 19.268292115252198 0.0 -20.388456439233654 -0.46823201526546615 0.0
288 1 2.833974983165908 3.228364495127591 0.0 9.893217165152292 -14.994859835332058 0.0
289 1 2.5191960176085226 18.281194908994355 0.0 23.53296766202125 -1.8625523437191183 0.0
290 1 1.6009108576498976 3.4922346251805507 0.0 1.5318319608974231 13.022319611912128 0.0
291 1 15.76560314812075 15.721759568539332 0.0 11.471085797528632 -0.45746133942390527 0.0
292 2 11.776648695025902 15.20901322412945 0.0 -0.45534529293753034 -12.004270517989333 0.0
293 1 17.57711762002775 17.60143858374003 0.0 7.999682568621098 -10.556582788853577 0.0
294 1 16.36779105578437 9.891334924196386 0.0 17.17148898000196 -7.983361787481029 0.0
295 1 9.995048691757933 6.131206690445181 0.0 3.4168266401354095 -11.863524554360586 0.0
296 1 3.7893487733379274 2.9420397777116936 0.0 -0.7237632821979176 11.453035716739961 0.0
297 1 18.1278905351271 17.648435258150016 0.0 -4.700941995003821 -4.598025283897817 0.0
298 1 2.416001426446527 10.628947525395004 0.0 -7.105357429519668 3.167229410566488 0.0
299 2 9.042404930718398 5.91729347359254 0.0 -4.8253078144949795 -10.054597587902215 0.0
300 2 19.64778623624957 10.12636136324089 0.0 5.000867233148088 -2.8739996495623408 0.0
301 2 4.042873949531048 7.5277588745648245 0.0 2.0374543960809026 0.16794328277642648 0.0
302 2 17.942969609596414 1.9988910175638204 0.0 -1.0304073401776963 7.08302185196589 0.0
303 2 6.078547736484138 13.722756802581117 0.0 1.9547055625200784 -1.5672464646059177 0.0
304 2 10.252350009945847 19.654173014252724 0.0 -1.7519954990959907 -8.38902940233693 0.0
305 2 1.7243769883538098 5.440433335692921 0.0 -10.01054456676757 -5.750295059459154 0.0
306 2 16.01804765935244 4.56423306234017 0.0 -2.5478244890726773 -1.5287265135136654 0.0
307 2 6.35345117368528 14.608951826596003 0.0 -2.8668222563677914 8.925162230044014 0.0
308 1 7.978900814812872 0.7135076627070878 0.0 15.625022921253477 5.823386981193514 0.0
309 2 5.87721882752129 19.407137144683496 0.0 -1.9200824031603616 -9.444121008075223 0.0
310 1 13.373292330614408 7.651240845308117 0.0 4.932643803270272 3.857757715508181 0.0
311 2 11.216077047429323 17.016123783940436 0.0 -4.578249710155961 6.041900437107955 0.0
312 1 17.63007670382215 12.125508040886448 0.0 -15.245454685997194 -5.494301303633479 0.0
313 1 7.908400108678631 2.058248171699816 0.0 -20.3956038140273 -8.112066931132038 0.0
314 2 11.625599930321718 2.970209204024237 0.0 7.098189055706836 -1.4957874606682036 0.0
315 2 4.349226210800239 16.52879270087161 0.0 3.8383732613676047 13.141171345145658 0.0
316 1 15.33863841666045 16.105651145519847 0.0 -8.610490742717753 1.7157914080801886 0.0
317 2 0.2282999326265442 12.043146203049698 0.0 -1.732728624730296 -9.02769864737848 0.0
318 2 2.950985346744342 1.5523528754951015 0.0 -4.2286104591879985 8.757328367975672 0.0
319 1 18.08851317082701 4.139830179413496 0.0 -6.77257418965853 5.4324267320988415 0.0
320 2 5.125401164133616 17.859807623938007 0.0 -0.9792164359174416 -5.794255986889448 0.0
321 1 15.923619349934082 18.133821679911172 0.0 -6.384892968885152 -3.4413093275379 0.0
322 1 12.824916984794687 1.3509682555951168 0.0 16.3471797812268 -6.60963637864101 0.0
323 1 7.950423389271424 16.344283406679995 0.0 -7.6531002743517496 4.43988431388221 0.0
324 2 15.688999416549992 5.518628602483547 0.0 -4.307739843361253 -6.204566552614539 0.0
325 1 0.8980080736257997 5.922712160292758 0.0 -2.221074242248182 17.70566939493644 0.0
326 1 19.19541072392742 1.2878821027181044 0.0 2.5234862506490656 1.6556633604195954 0.0
327 2 15.881415612977237 11.098739386679883 0.0 0.48779610649112315 5.406100237210536 0.0
328 1 3.207235711852461 15.1820443842987 0.0 -12.874315750575132 -1.9072419552044824 0.0
329 1 3.985524906508597 10.521974798078702 0.0 -1.2127298706641172 10.802879479484474 0.0
330 2 1.063735932216767 16.808022387228217 0.0 6.449460004700267 0.7649936651225786 0.0
331 2 6.8162991898468155 15.835287378041913 0.0 -1.5079334041814292 -3.8256359818326167 0.0
332 2 15.287141510140188 2.9350944587427064 0.0 3.347054219364572 -4.165339016147774 0.0
333 1 8.45312191302303 1.2783417368166006 0.0 -6.025375586767531 -10.048737690029405 0.0
334 1 10.222655659762564 3.668235797835792 0.0 -19.721631555953625 0.6088754378966189 0.0
335 1 15.014834392167167 11.555201472427882 0.0 -3.1836439861644568 11.65820620087674 0.0
336 1 5.098784450800896 16.740805846263147 0.0 -15.466663090966263 12.629424348942319 0.0