ITEM: TIMESTEP
0
ITEM: NUMBER OF ATOMS
400
ITEM: BOX BOUNDS xy xz yz pp pp pp
0.0 19.7609 0.0
0.0 19.7609 0.0
0.0 10.0 0.0
ITEM: ATOMS id type x y z vx vy vz
1 1 1.9621293589234148 19.0322647519105 0.0 12.646104818192207 -10.14524061625483 0.0
2 2 13.120506061269795 15.235503541559185 0.0 2.2941366983241256 -7.076260613894648 0.0
3 1 16.82520271178121 19.346181382782895 0.0 -8.337196376283988 -5.531751283980375 0.0
4 1 3.5086928480575863 1.1919646748918797 0.0 8.792659140410885 -7.405150293537455 0.0
5 1 18.93570888549685 15.775600752038144 0.0 -10.906387728616151 1.6576751767299762 0.0
6 2 1.798716229673182 10.885438497355048 0.0 -11.465007798684505 -4.87191362658113 0.0
7 2 7.9401940248266225 5.51071213956216 0.0 2.8218100965103985 5.250402591558715 0.0
8 1 9.348844076890515 17.636196019843364 0.0 -8.269380193762155 -2.2504454763225525 0.0
9 2 6.266017871177296 8.723508994219099 0.0 1.6422435483840516 -7.547546067273577 0.0
10 1 9.790388349045022 0.04516032661269142 0.0 15.091092594048867 -3.8136551515936903 0.0
11 2 11.52694869186945 4.0005473030908725 0.0 -9.62722321158437 1.6493626520322975 0.0
12 1 5.0951563261794375 16.631952784957253 0.0 10.353651631812097 0.5498246524615156 0.0
13 2 15.104535373651887 14.862723552761098 0.0 9.355374466414437 6.003894441454686 0.0
14 2 19.45406924979897 5.078577562506927 0.0 8.585947568505311 -11.122109910750703 0.0
15 2 5.055354907685266 7.210822587101378 0.0 5.247685294257593 -9.716012336844484 0.0
16 1 16.848371620908118 15.994612248357441 0.0 -8.660662545977846 -5.294612450147225 0.0
17 1 14.271000648891434 6.514669950658288 0.0 -1.5590062715879835 0.43523375153849564 0.0
18 2 8.652512892120685 16.496368380944403 0.0 -0.6529667828265031 0.9831922784094719 0.0
19 1 12.330465546707424 0.6732043884639006 0.0 -7.853416976088393 15.614418695535848 0.0
20 1 8.731198341420676 0.3459004462578584 0.0 -2.4754986856790024 -6.690867102791232 0.0
21 1 9.709567989340126 6.745767824389878 0.0 5.393228508634701 12.197345480814915 0.0
22 2 7.11133093862459 14.114219454207209 0.0 -1.1371465158053244 -11.556810918979092 0.0
23 1 3.483032560184595 4.6587322397438 0.0 16.94127672448616 -5.441603574545461 0.0
24 1 19.36169509175982 14.892694032525965 0.0 16.15640125977152 7.550940772177053 0.0
25 1 19.04197101139463 7.369671318131891 0.0 -3.9239969465612528 9.843192282181457 0.0
26 1 4.518629753802486 15.069924500870782 0.0 -13.386867585842865 -2.3643943094440383 0.0
27 1 11.311568637850323 8.669025949380153 0.0 9.446006238815395 2.0068338938749593 0.0
28 1 15.303060266645858 17.85145726952118 0.0 0.6089287218559601 -2.870657481870923 0.0
29 2 11.921476739625202 3.159022858102367 0.0 3.2416914849956457 -6.8330283495141035 0.0
30 1 8.981029257946602 7.727297594308952 0.0 2.676816780513224 -8.143193294479826 0.0
31 1 7.121720738213109 8.172288174083835 0.0 -6.113219846807534 4.068821027016174 0.0
32 2 0.30535010835035015 13.985096660956884 0.0 -0.2701799979244317 7.711399948931372 0.0
33 1 5.186492745854371 3.259487338694283 0.0 -0.7633630391542309 -9.211394743660835 0.0
34 1 15.481192378169593 3.195511733290537 0.0 3.7383264725865066 15.278476805546545 0.0
35 1 0.29328362649588124 17.118177474095944 0.0 0.6791046048855832 0.47131615466067744 0.0
36 2 6.222877573088718 14.645328893502834 0.0 -1.8346214850572335 -7.286953044558456 0.0
37 1 6.2600360535651305 2.628629471240415 0.0 -7.245127428364814 8.65723580902428 0.0
38 2 10.583544163029906 4.923025777750813 0.0 10.256816570624272 3.208889774867074 0.0
39 2 11.902881791209676 10.336189907080026 0.0 4.152727999540706 -5.135556480279843 0.0
40 1 14.946006107185257 19.659839538945498 0.0 -6.736033194176284 -4.728775441244108 0.0
41 2 7.273149600784915 3.3784461192728905 0.0 -3.200260126237105 3.91164965277726 0.0
42 1 10.315381369983797 2.11169032568432 0.0 6.524587938540411 0.06026234938300007 0.0
43 1 15.355241623084025 19.156104164263933 0.0 11.227900513098136 -1.7628679025987637 0.0
44 2 8.984438291343025 2.76561746222666 0.0 -2.5873839580092493 -1.2214303573872274 0.0
45 1 10.953215030692572 9.91038011986873 0.0 -3.3646123454370125 6.489104715582064 0.0
46 1 2.0738458815650613 13.544464239824293 0.0 -6.987286621418092 -3.8032489026988237 0.0
47 2 16.2665583469484 8.541805615470468 0.0 13.25825326252728 11.997021800740818 0.0
48 2 7.366995422360839 12.313266044522004 0.0 8.364793882036693 -6.378862707124524 0.0
49 1 17.36563617538181 0.7641963507089857 0.0 -9.913195693754167 -19.937361725865227 0.0
50 2 11.591379149936138 9.458023852544654 0.0 -1.2445597727072295 4.3641669770430545 0.0
51 1 18.48597111404755 5.269719452124879 0.0 0.2524181072512406 3.2849794915742834 0.0
52 2 5.175925075305927 1.011446046996922 0.0 -2.6890734260972473 -9.485632501543709 0.0
53 2 11.868519798787533 1.4508982458025974 0.0 6.086447302264223 3.6914092728198886 0.0
54 1 5.969730072803557 16.798734609172147 0.0 -9.060438258491693 10.479766977361912 0.0
55 1 16.363789967217762 13.339338905799115 0.0 8.359276477346208 -11.811252757780043 0.0
56 1 7.216193265492241 2.072252555350851 0.0 10.27202511720757 11.672856078182406 0.0
57 1 17.973710686357336 16.85007933178088 0.0 4.529122631137718 -9.029309389825787 0.0
58 2 4.517671524124165 12.313230596967843 0.0 -6.048958963206669 6.883983408301423 0.0
59 2 8.870885403255066 9.57559858973342 0.0 -4.583199045797538 0.23499573012018818 0.0
60 1 2.6257909204886647 18.854344939835123 0.0 -11.053215191225641 -2.4223918419161623 0.0
61 2 16.89285482058461 10.613897537146764 0.0 3.075411304596878 3.678036264387542 0.0
62 1 9.45283841169951 7.62942197748752 0.0 9.044286061563286 11.262745052806627 0.0
63 1 17.949774732088386 17.956889609733693 0.0 -14.091169328690249 -14.5958030525073 0.0
64 2 18.169247008360383 8.010947335183818 0.0 -5.8671857109275685 3.189592170498991 0.0
65 1 13.824835011652551 10.938330989400272 0.0 1.1429715854037596 0.9159711311755615 0.0
66 2 8.626372717345074 18.221851320180996 0.0 -10.445694869687385 -0.0389900668721356 0.0
67 1 4.497339651651935 5.818888369076143 0.0 -14.314092553746042 -18.165219421664933 0.0
68 2 0.055479527976512975 11.655026319896745 0.0 -9.008227465992782 3.8613580721314595 0.0
69 2 13.778425404807749 0.7502119346514209 0.0 -3.301705834805646 5.117444801834934 0.0
70 1 2.907427094150971 5.80323069558803 0.0 -0.5646111972417648 -10.052042336840746 0.0
71 1 18.50775857731456 17.80843727964729 0.0 -4.612931952674192 1.8457032914268607 0.0
72 1 3.2450706439209176 9.315425040659331 0.0 -3.417447118160852 -16.77564643411743 0.0
73 1 18.45514882161679 13.229710833147905 0.0 6.133227576664306 -7.470891699597868 0.0
74 1 3.0919657196771575 4.92370824422471 0.0 -3.3668968335689256 -1.9134931766636643 0.0
75 2 3.602544190307915 10.120230162363708 0.0 -0.35250393501947147 -1.420591864506472 0.0
76 1 11.557691139450313 7.512126638403803 0.0 2.8256879464518194 -23.547298764416116 0.0
77 1 3.128462986046721 0.8756947403103761 0.0 -8.560866914925528 -3.0825520034087583 0.0
78 2 12.230280854547125 8.882594387309528 0.0 5.615056430859875 4.877924356838728 0.0
79 1 13.329964399156564 6.718332630911967 0.0 -15.697993895804892 3.6854056878959387 0.0
80 2 5.79251378084391 7.651699969766789 0.0 -7.991999872668012 3.978012153995972 0.0
81 1 1.0993641712884412 10.388888078651807 0.0 1.4740173580975857 0.33547416545341135 0.0
82 2 13.024272042688446 14.108075044669167 0.0 -9.347414706693714 6.621845548807449 0.0
83 1 13.793531486074619 17.770889023257045 0.0 1.371218311299184 -3.2566543376443913 0.0
84 2 9.382767194930375 14.989978362392105 0.0 0.01694314996468504 6.137003460464005 0.0
85 1 16.945103203432932 18.29063551175327 0.0 0.501730971944211 1.776668249631443 0.0
86 1 19.04447320450881 6.005760966658712 0.0 -7.434897354737016 4.685545886183345 0.0
87 1 14.918021360279736 13.559703046836711 0.0 3.33137767512428 -1.3224289702426446 0.0
88 2 8.279352768457278 14.429436567207683 0.0 -3.743128948295269 6.897741146159432 0.0
89 1 12.704728421016215 11.023827144925455 0.0 2.2022341626130633 -8.489533729526986 0.0
90 2 12.523272798906758 6.757031672456535 0.0 8.915059955162967 7.9298041319088295 0.0
91 2 15.638032825910791 10.19582116868026 0.0 3.538019830293031 2.5371274832543396 0.0
92 1 16.267914032309402 16.227205591879713 0.0 1.8836935274341318 -0.5801195846726671 0.0
93 1 14.258736463442878 13.281771289995783 0.0 -1.1867824598662855 -14.435634118331471 0.0
94 1 19.568701061828694 8.65872231750516 0.0 4.2031503442433165 -3.661981382882452 0.0
95 2 12.175228625155048 12.697993131320045 0.0 -10.652602987652482 8.692449604772492 0.0
96 2 8.028280120461867 3.817089509232992 0.0 -4.60310219094542 -10.70742500730429 0.0
97 1 10.469227231254607 16.545399506683783 0.0 3.588593389760274 12.939248491350204 0.0
98 2 2.40645504671981 18.01043340122057 0.0 -3.246691745902804 7.394021250969227 0.0
99 1 12.224821947838429 0.17495713501554358 0.0 17.56466093577266 13.337037043077107 0.0
100 1 19.098321640857915 19.644428229631846 0.0 3.731619444183662 -9.027499942734437 0.0
101 1 18.928656106103897 0.543502545868963 0.0 5.690496847600152 -19.249804950358175 0.0
102 1 8.190179953334425 10.506883912457317 0.0 12.571106486483098 -0.13928966654550273 0.0
103 1 14.931898592432574 1.7212511246813649 0.0 10.045042211266153 -4.202610141956996 0.0
104 2 19.11114271780256 13.902619213177445 0.0 -11.173675851663347 -1.5205922424767682 0.0
105 1 2.304526414228368 14.276146230696225 0.0 -5.169917291614742 -8.892069206601068 0.0
106 1 0.04345501335929335 1.1702581055067023 0.0 -0.5826367319037918 -7.770387678633113 0.0
107 1 17.675980283250283 12.3499889471054 0.0 8.746942206223448 -3.0104712495109247 0.0
108 2 9.131454067358083 1.470447767273248 0.0 12.679863455947993 0.6129794144892672 0.0
109 1 12.8003244618642 2.3242522102904295 0.0 -4.488412945189868 5.491956710792815 0.0
110 2 10.89634458921058 2.8717091841805082 0.0 7.418824593642796 -2.660676968363704 0.0
111 1 13.241891662971634 17.264047853978596 0.0 4.645651217886317 -8.328991409667685 0.0
112 1 15.934663287433406 1.4516511800632155 0.0 -0.5244862097665351 5.693341455682463 0.0
113 1 15.891240855749386 2.869691481591919 0.0 -0.9763237232091831 0.0026691957216850013 0.0
114 1 2.6380218718070565 1.9187557383301217 0.0 -8.460743293339888 5.085691762663942 0.0
115 1 3.690813048735496 16.172799904233138 0.0 9.145197011558297 9.349711295950113 0.0
116 2 8.209354945950842 11.904379918813708 0.0 -3.663602668703733 4.907045147689861 0.0
117 2 15.396888085280068 0.8824070242960211 0.0 -5.26330871581748 4.72962031110825 0.0
118 1 14.535057181395835 17.216971902019466 0.0 9.166036096846687 -11.08024798830706 0.0
119 1 10.59636419892574 7.6826238352538505 0.0 7.262360291487138 2.1537900126279323 0.0
120 2 18.14013954802111 15.275602106663747 0.0 -0.08780344920050491 -0.759703810683335 0.0
121 2 9.365917283033456 13.851156330991804 0.0 -7.87748649825689 5.427621775700702 0.0
122 1 12.289528972105085 14.405637817243075 0.0 2.007500302865782 6.458959886440914 0.0
123 2 8.53540042232167 8.6132092128318 0.0 -7.070451157075552 3.2295189839949776 0.0
124 2 17.566277795266128 8.75913586255383 0.0 -11.302295892388793 -3.251244981553829 0.0
125 2 19.033748000686096 3.221722420198251 0.0 -7.863596879692972 -4.7698373047266065 0.0
126 2 10.174054577802323 12.111793778382657 0.0 -9.227016097092381 6.166019837564433 0.0
127 2 4.823064724687175 11.221747375318772 0.0 -0.5317906617090776 2.588749841759201 0.0
128 2 6.038960183678438 0.7856592124169774 0.0 -2.447101085868849 0.7454383702167153 0.0
129 2 0.8677875591472787 16.370041238536924 0.0 -3.56292126887565 -0.7129415718446688 0.0
130 1 0.23135175067351554 10.507366369482616 0.0 13.233258612961684 11.69981529532856 0.0
131 1 16.71148756092048 17.149388522518134 0.0 -10.64624107300189 19.332026346157072 0.0
132 1 17.095089654157686 1.4106568342217705 0.0 -3.706056515468601 8.079436595951716 0.0
133 2 6.956907417271974 18.372705948574254 0.0 8.988915815466342 2.13094116101842 0.0
134 2 13.83717120137872 2.5521608789302386 0.0 3.0171473951463503 3.468251201051655 0.0
135 2 16.138862520568008 12.410485593857512 0.0 -0.48570629166891527 -3.033933187659705 0.0
136 1 16.272116913784913 17.742648353043442 0.0 -1.218479712948175 5.890215004529604 0.0
137 2 0.06876925718929161 3.9947610085805745 0.0 -1.4322243848783318 -3.7695904933492805 0.0
138 1 11.30345639885426 11.795220682204766 0.0 12.62652455251871 14.498360680081062 0.0
139 1 1.4415532169375633 5.704707978339572 0.0 -2.7387125775938364 -11.083889499648869 0.0
140 2 9.774514740833704 12.766386800446469 0.0 2.2898383522345007 4.792019666817819 0.0
141 2 4.844981512474259 8.393967439741422 0.0 -0.7582270882669974 -1.0950759254875828 0.0
142 2 10.056516197215068 10.043854896895704 0.0 9.771198315736912 8.234988827876714 0.0
143 1 10.753729038279271 8.286541350017144 0.0 13.738885161656821 -11.723889286089326 0.0
144 1 5.6503669425305905 15.780459784081504 0.0 -7.6703910307506895 -6.431731304844802 0.0
145 1 2.674815859237851 9.44125295651713 0.0 -2.2527200086354497 2.9517987178374425 0.0
146 2 3.505128817063403 17.08127232944983 0.0 -1.425691746635596 1.5107399649863662 0.0
147 2 2.791273588658959 3.2074475592965395 0.0 1.6876257123962783 -7.753459426964849 0.0
148 2 3.1772999334304757 6.594669178965438 0.0 0.41546221362128605 -5.606796438224111 0.0
149 2 3.257962959197041 19.29276181196693 0.0 -5.856091110663782 -0.368761538722754 0.0
150 2 4.384669197901635 3.876977228958704 0.0 -0.2637661507280916 2.2804526342315636 0.0
151 2 18.015874126758124 11.078878075764614 0.0 4.229627203276093 5.258742952819682 0.0
152 1 16.28416719740901 14.659343079170648 0.0 13.294703396104246 -5.593561258301807 0.0
153 2 4.065978039651144 1.712103090125231 0.0 2.042341514655931 -7.0137036582843955 0.0
154 2 3.3720698324444798 14.579605587660161 0.0 -1.9628121037958424 -4.145944755649811 0.0
155 1 15.590825115277523 5.2488783491907585 0.0 14.372177123876467 -4.902845434933676 0.0
156 1 18.05716771212852 7.243429630774799 0.0 4.175148754571053 5.947879305620241 0.0
157 2 7.907419329435804 0.6443652806165453 0.0 8.253752331352148 -4.517322846323521 0.0
158 2 7.9368103225951225 7.464124263158257 0.0 -9.666379103532199 0.9839683653130534 0.0
159 1 18.28789015063174 2.863161560277997 0.0 -7.720553977446712 -24.289168496162677 0.0
160 1 18.715624677158093 19.017746622459452 0.0 -6.2306441280594855 -3.5356687804644 0.0
161 2 5.5540859149394475 13.890041488949096 0.0 0.8576425516035538 6.454627993417258 0.0
162 1 17.082797210865913 15.402503356597157 0.0 6.34692856826491 -9.117492161605298 0.0
163 2 4.294391823190999 9.241428689653935 0.0 -4.789797252758272 -2.669181901113409 0.0
164 1 19.503131143220475 7.139808400826819 0.0 2.605221814538507 -4.504279550947143 0.0
165 2 17.146965019385778 12.82280822698901 0.0 -12.244928566042224 -5.631909109185687 0.0
166 1 19.17823120953712 6.517006998548108 0.0 2.4631956511841167 2.6540687823253086 0.0
167 2 17.639412079543852 6.303555520673234 0.0 -8.271072792870333 -0.4760186829913545 0.0
168 1 17.828089762630437 2.1705398760112415 0.0 -13.953569082030835 13.40653848612155 0.0
169 1 18.8907875910287 12.673638707571019 0.0 5.12619921909681 14.812471722176776 0.0
170 1 6.2091107607798 5.71157855177673 0.0 2.7565441368693273 -9.584506976352463 0.0
171 1 1.2831673937619614 18.88515094009664 0.0 17.14559346364242 -4.540627883249876 0.0
172 1 14.400897308352219 18.09776265738298 0.0 -8.112587302866121 5.9579757499443815 0.0
173 2 5.0007408838107725 12.969729713477752 0.0 -0.6067670683372923 -3.4178340058986496 0.0
174 1 6.992099748792544 0.8597726140382177 0.0 -6.158584449244332 -5.434498283607079 0.0
175 2 10.78826038243677 13.437374207104906 0.0 8.767662716481414 -5.2372636784063 0.0
176 2 6.721410644197659 7.180306369508398 0.0 4.277757509834842 1.618870519811845 0.0
177 1 5.177992185951993 2.722552759466868 0.0 2.578763150398573 0.5670998370653745 0.0
178 1 4.186333166632927 16.431742461305827 0.0 6.298039357531778 -11.710409834231296 0.0
179 2 2.008938852208213 1.4745227291590963 0.0 5.031600623276851 -3.1224434778706227 0.0
180 2 8.921510836879154 19.353020318134597 0.0 -10.955119245662072 3.825655461421673 0.0
181 1 2.159595998988448 0.42190033404673255 0.0 -1.1459853201722725 -7.119991442790742 0.0
182 2 15.370473913863542 9.327133351907838 0.0 -7.015730862309211 6.592927046364796 0.0
183 1 14.704976665043946 6.17993678814438 0.0 -13.562117962034351 4.314064579054134 0.0
184 1 11.463025841176034 13.954178261430835 0.0 6.4342299817064825 -0.1989424385922465 0.0
185 1 11.76132226417305 8.332700031067791 0.0 -6.296835875117828 -11.590504182971296 0.0
186 1 12.736675176483521 2.747002013473038 0.0 7.317406503448209 -0.958707540084724 0.0
187 1 10.392466112685057 17.19865785972999 0.0 7.35079626819289 -3.507384826957683 0.0
188 1 2.9854920515193837 4.286798787811142 0.0 0.8407742752936275 -11.892074642604058 0.0
189 2 18.61789094131742 1.8957038105879553 0.0 -0.050158794118370015 -3.5876373151563437 0.0
190 1 7.294537286718035 1.5535303568832022 0.0 -11.93348628228442 -13.312281797486094 0.0
191 2 2.0445988415155183 6.500382416391423 0.0 -8.273902584570644 -8.714139629832635 0.0
192 2 14.067903215649734 15.163495634704747 0.0 -3.4384688376795527 3.5672828805508106 0.0
193 1 9.995475502617552 17.984185072739834 0.0 5.386162881651846 -1.38859099469015 0.0
194 1 1.179392391905124 15.540519032786472 0.0 -3.5787398995349324 -12.405394510800397 0.0
195 2 5.798534220986828 6.563732850265146 0.0 2.517182622150515 -2.497181402144414 0.0
196 1 0.8612688933594895 18.878244706538844 0.0 0.4017466565675443 -2.2326844560280237 0.0
197 1 7.799912515875061 6.751017268109784 0.0 1.3892966756323595 16.651961641885112 0.0
198 2 9.828225351773945 9.273102630477515 0.0 5.704698156457004 -3.3164119292654237 0.0
199 2 18.9165635056985 10.112634722452137 0.0 -2.4387731254973724 -6.151712848833856 0.0
200 1 9.963475608273882 11.133673677852528 0.0 4.312577784614121 15.303414328364301 0.0
201 2 7.503745974120753 16.246828948448893 0.0 -3.092452849830733 -7.584551746145401 0.0
202 2 13.944636139561366 9.450815773414982 0.0 8.272661762632717 -1.546753542065684 0.0
203 2 9.491778174540556 3.5434885522931223 0.0 0.6550471847411481 5.484385153454808 0.0
204 1 5.091986620138739 17.47484142244348 0.0 0.7636202562627241 -24.56245806355827 0.0
205 2 12.154867306292248 16.784404959773557 0.0 0.692922044437139 -1.9075732239663035 0.0
206 1 4.208165357100638 6.544757353017268 0.0 -0.7939046805318631 -5.675993028475674 0.0
207 1 11.547568056830052 14.486265018222463 0.0 -3.9844196405375425 0.2589684981895865 0.0
208 2 6.385153034978199 1.7796029492386465 0.0 -1.0268941377444192 12.834424488362755 0.0
209 1 9.255235947126662 10.345497717237958 0.0 9.610004596728611 -5.529481207742388 0.0
210 1 14.066403588752342 18.736144617689966 0.0 -2.1497010206026776 2.9613887117825666 0.0
211 1 5.5648738497487225 5.883802492501559 0.0 11.015590792081605 -3.5976443378093608 0.0
212 1 15.745302506423863 1.9467460498842732 0.0 1.1271252146703195 3.520345829770228 0.0
213 2 16.943090501956338 11.560520327555546 0.0 -10.117505894896045 6.599374574483353 0.0
214 1 3.9273938772886496 5.747077350694135 0.0 10.462793148176806 -2.465077300534652 0.0
215 1 4.259653944844508 4.7866329319259835 0.0 -12.867610031868267 -4.835474765593776 0.0
216 1 11.153169513218446 7.805119270187672 0.0 -8.38033743944212 16.45795321600615 0.0
217 1 14.755034899111111 0.33111209434692307 0.0 5.184730127998061 -11.305957325532054 0.0
218 1 12.957573037024256 0.19001729515260418 0.0 -2.4874736905438413 8.512401220768155 0.0
219 1 12.069376861218942 7.857458748173014 0.0 3.7534530734252876 5.883910261218559 0.0
220 1 4.131965207788295 15.84574030464869 0.0 9.238718277973922 -6.487732243242441 0.0
221 2 8.528409359460138 4.930409517290303 0.0 9.968941203374985 -0.43694541334644266 0.0
222 2 3.310544560155285 2.5569564818816652 0.0 -10.864445161125637 -3.4283091352746533 0.0
223 1 6.806287882589434 2.6189199723602106 0.0 5.025987362964719 -2.8952745050997537 0.0
224 1 1.3984838613175896 19.56693927436703 0.0 -15.121779694722557 7.640925065951244 0.0
225 1 11.483850051585604 19.697066494614614 0.0 9.245714270028175 6.126684623198483 0.0
226 1 13.721459098911046 11.576479193826362 0.0 5.407811277705614 -25.157416945506196 0.0
227 1 14.42217097429458 1.160035882693723 0.0 0.6121189040144153 -0.10971574575883221 0.0
228 1 11.70471078471767 11.492388957022879 0.0 9.40470463664284 10.078090804307697 0.0
229 2 16.904596481336995 4.598587822851693 0.0 -10.154060270424994 0.35996628012404547 0.0
230 1 12.01236735664567 17.58145190940967 0.0 -1.2310456015683084 -2.9404501304319455 0.0
231 1 14.1749114272695 12.811866803969167 0.0 -13.170103991195273 0.3932536888350815 0.0
232 2 1.9755511890993789 8.671632024785213 0.0 8.259735904784563 6.297135002938593 0.0
233 2 18.83450766819763 17.01361859547934 0.0 -12.96613206960776 6.975968844726169 0.0
234 1 18.209441542734698 14.426258669155231 0.0 18.121646661541345 -12.207554664474657 0.0
235 1 9.814546173380146 2.1501146889120313 0.0 -0.8505593601873337 -5.658252748605808 0.0
236 1 18.302840050114867 5.871041011775605 0.0 7.949445768180212 10.548086379059887 0.0
237 2 1.121146989738842 14.5476297153293 0.0 2.093931636313761 1.894692825094079 0.0
238 2 1.1757918451826905 18.120446486967264 0.0 12.312392166729046 -0.9138073550009328 0.0
239 1 10.118814679317959 8.161648466528469 0.0 8.97254740303808 0.9707023613137482 0.0
240 1 11.623358825361755 0.6554882071630787 0.0 -3.63156082823132 4.897756289761684 0.0
241 1 1.672628560363935 16.495857334652282 0.0 -8.103409931114648 -5.240956026343513 0.0
242 2 6.254748575035241 17.600979213441462 0.0 1.2136943693599804 -4.752329751653928 0.0
243 1 7.586704170862159 9.944698090409222 0.0 4.867118300164615 -5.706583387900565 0.0
244 2 0.9782744321073287 11.562158221942598 0.0 1.914525031880457 -0.22912349440679966 0.0
245 2 14.462948045016482 10.28155826178224 0.0 -1.1269265244361266 2.417193684571387 0.0
246 2 14.151438546285716 16.48994804842432 0.0 10.92491238078139 2.6329105833628517 0.0
247 1 17.851845307012578 13.593677332079727 0.0 5.523169893836492 2.2912399874501688 0.0
248 2 10.700374133022352 6.071110917128586 0.0 -1.638413440063982 7.381608479673123 0.0
249 2 9.325846031974205 11.783229561456608 0.0 -0.0157473264094094 -8.068197621846707 0.0
250 2 8.270629899136273 15.313332670511631 0.0 -6.20461785464364 7.050405209810795 0.0
251 1 16.51882209335368 0.8802501057358751 0.0 -8.384050169478133 6.265903176710817 0.0
252 2 13.243022678494645 3.4808165957536032 0.0 -1.9992442709927392 -4.858931212727766 0.0
253 1 11.520670458107446 18.19578892360523 0.0 -6.453567905907788 8.528710668427978 0.0
254 1 10.660319828786779 0.09183376925887976 0.0 1.2493979650304528 -4.258060159012513 0.0
255 1 7.883860421735648 18.993678260794237 0.0 -15.862837033758202 5.118129869900325 0.0
256 2 0.47771465106362593 2.9826148802967603 0.0 -8.988681182585267 4.737245244200861 0.0
257 1 1.4908927253991333 0.5326339628597451 0.0 -6.717022749949937 6.582095361138548 0.0
258 2 19.179442083167046 18.012417591591518 0.0 -9.964450105873983 9.355139942539042 0.0
259 2 8.378241581419404 2.047766163743062 0.0 13.45491993103413 -1.378951369217864 0.0
260 2 14.793103675741023 4.121147622067248 0.0 -21.09416738060928 1.5463446952426076 0.0
261 2 0.13163675091837 9.606403470039345 0.0 2.713050417485026 -3.4321906130119526 0.0
262 1 10.719399470951512 10.582980434382621 0.0 -2.750410104815962 1.8095299046672084 0.0
263 2 0.012821419334946994 12.678501919604258 0.0 5.4238553314755125 2.091212620192213 0.0
264 2 5.381101779439945 9.089016022402845 0.0 3.027712026873599 -10.742508759549404 0.0
265 1 0.214402162028896 2.166988730855874 0.0 18.054984445996695 5.174469331487596 0.0
266 2 3.6187521101370503 7.5318890251829025 0.0 -1.5558171816463082 -4.110476717131232 0.0
267 2 14.030211361164666 7.464851271202309 0.0 -3.7415322565004443 1.5534264105246112 0.0
268 1 14.986993478370772 7.753641531673235 0.0 14.977196689072308 -3.549459700033812 0.0
269 2 16.194930488191428 6.3677274538143065 0.0 3.1456233176931567 2.088645351715502 0.0
270 2 2.2503666864819483 7.5321003044321655 0.0 7.691546328784245 1.1072922102304208 0.0
271 2 10.364607383288915 4.120708536068452 0.0 -3.712305566801567 -0.13341808249687478 0.0
272 1 5.1165513587170555 1.8293338623445277 0.0 -0.7168092977595378 4.260097109234323 0.0
273 2 6.771906280706335 9.470746958607961 0.0 2.5139217398818907 5.292138980099288 0.0
274 2 19.728976083520184 18.748151812980268 0.0 -3.495594663812003 -1.7669615573614337 0.0
275 1 17.100071410705414 16.699027016539947 0.0 14.066039169914388 2.7074914457191475 0.0
276 1 4.15018554877055 2.5183648187081036 0.0 12.064337571695265 13.682779344464665 0.0
277 1 1.0375773689966288 4.270555745639478 0.0 11.52248798613506 -2.5261364013288423 0.0
278 2 13.16914809800072 10.300738276631295 0.0 -13.95165402393951 -1.3442595164565259 0.0
279 1 12.687462118719472 15.888722911070609 0.0 -6.993191495744716 9.889601238433134 0.0
280 2 6.945541738019159 19.54705165972669 0.0 0.7003529110357265 -12.033174863262259 0.0
281 2 9.376543178224903 5.168618423131147 0.0 -5.182990197128442 -4.9736863726985066 0.0
282 1 18.365750541858585 12.744611571261576 0.0 6.637060071106314 -15.11003017811235 0.0
283 2 12.246394803516838 5.029349906912238 0.0 0.07023849641063232 0.9228617890411147 0.0
284 2 10.297543629746388 14.900501430906631 0.0 -4.313871366269414 5.30208368319151 0.0
285 2 2.292414961080921 11.927123325907171 0.0 8.821326174554148 11.255140383327523 0.0
286 2 13.212767110745295 16.428444093649716 0.0 1.2218532543042497 2.3937758216130676 0.0
287 1 14.670640321381459 3.023630426384761 0.0 6.472378610345102 -7.232159332985312 0.0
288 1 3.6322202988750827 12.030512914562976 0.0 9.598283078406109 -0.635655160926884 0.0
289 1 12.690902801526551 17.97751521472132 0.0 -1.5256545201484855 -2.6882517773839636 0.0
290 1 7.02378798345919 6.274822744070115 0.0 3.86503103939258 -0.3907718209773962 0.0
291 1 2.7810512482942427 12.73174567831849 0.0 11.972265846140742 5.486059698207478 0.0
292 2 17.70154851013664 4.088756342281233 0.0 -2.999155179140295 5.163592195001557 0.0
293 1 13.56460115454223 13.070978277731502 0.0 -0.0030008356309798585 -1.8307992504833042 0.0
294 1 15.886202564123819 15.75639928039838 0.0 2.1923169157045073 2.6972795388591826 0.0
295 1 15.994953812795814 15.083241128523794 0.0 0.3203397726195835 -3.8256399056317827 0.0
296 1 18.116779914636346 11.969355259331023 0.0 6.434120226170421 -18.766537658602896 0.0
297 1 3.1108915988022243 13.864041109410321 0.0 8.639223767542468 -5.066463680027212 0.0
298 1 14.826817998571087 11.052292798747649 0.0 -7.656243328826456 8.601492527865533 0.0
299 2 1.9485402245979626 9.89830708376029 0.0 -3.2092222416530265 6.862266371678543 0.0
300 2 16.81687953690258 3.51545273124637 0.0 11.510526846744433 -7.54330885150846 0.0
301 2 0.39015422002107825 7.744924325617578 0.0 -8.657058596454899 -2.1932168365410885 0.0
302 2 15.628594290434213 17.094296729210445 0.0 5.778947855464486 2.6481904723490675 0.0
303 2 0.9180735344774928 12.934461932292283 0.0 -1.8926462521327403 0.8735237871437459 0.0
304 2 10.521992688968025 19.077772293782576 0.0 -1.6330088938474545 4.308689743619962 0.0
305 2 13.017044434340944 7.775314254830122 0.0 9.25606210216007 -10.18967912868381 0.0
306 2 18.454526454243137 8.95946466596586 0.0 1.3550919375344668 -7.7426660612797304 0.0
307 2 2.599342716576144 11.122435154045418 0.0 -0.31177498042740337 -3.170593198308776 0.0
308 1 3.5333072106235046 0.4078471308209873 0.0 9.317346113595981 -13.561242168324394 0.0
309 2 14.397792063454622 8.48466322258579 0.0 -0.08020535550685381 2.0581239156725535 0.0
310 1 14.920102486686307 5.616424586521786 0.0 -2.8994819460574908 4.689554888113041 0.0
311 2 2.863913785389375 16.32132987348499 0.0 5.669042542639989 -2.1388318438740814 0.0
312 1 4.5428436480153636 18.237793189040367 0.0 -0.04381438723103983 -3.430657174432545 0.0
313 1 15.609512919662395 18.5179491287498 0.0 -5.060580227226885 6.7088414894028 0.0
314 2 18.834205316377858 11.735847737935742 0.0 -15.156342866073205 -0.23362589908765602 0.0
315 2 15.789688642683688 7.335079819380316 0.0 0.4868523980880832 -4.22746787795194 0.0
316 1 18.81173588611003 11.040069483705228 0.0 -2.021479705741383 7.827502272015095 0.0
317 2 5.800831907383207 12.932537898683655 0.0 -3.267581803288116 1.4545077914179696 0.0
318 2 6.891727967178626 11.33372448940603 0.0 -12.730521037216947 1.0210925730450335 0.0
319 1 17.931368722182395 5.482835041808077 0.0 -11.717518016029045 0.2100605806490961 0.0
320 2 0.8621750082821151 8.90102873642918 0.0 -3.8457680719775835 -4.7466854218488415 0.0
321 1 15.988148347755654 11.328941087129687 0.0 3.148302942223411 16.60281092484863 0.0
322 1 15.971964984755154 14.264494288162084 0.0 1.5489204000543804 0.6306011732798359 0.0
323 1 14.919488956657933 2.4735895267266717 0.0 -12.200476454351849 -8.20983258945108 0.0
324 2 18.09641404452612 19.5704237707314 0.0 -1.1503368972961583 2.1679089668827367 0.0
325 1 11.45561936945694 11.09293938395619 0.0 4.042525932464585 4.056697351870932 0.0
326 1 2.489556360044872 13.185229278995319 0.0 -8.608276453042329 1.1568546365334949 0.0
327 2 17.363249917017207 9.911299715960158 0.0 -6.300663157416499 0.8998933698576844 0.0
328 1 4.554012659223491 14.567289633497607 0.0 7.737401874119149 -0.8271760138242177 0.0
329 1 10.585413608999255 11.144414094739332 0.0 -3.1821792928836645 -13.574942031668819 0.0
330 2 7.359837746183789 4.6910738375893795 0.0 -1.8254571347142072 -5.800938937588387 0.0
331 2 5.310684264120292 0.09409857793962753 0.0 13.07744443958578 -2.6562794841571677 0.0
332 2 12.102340668351973 18.952633460746874 0.0 -6.756074654029022 0.9015854641398464 0.0
333 1 3.3035958956341145 13.156358025340506 0.0 6.3060873633803824 -9.435063667282373 0.0
334 1 5.1463174235429925 15.472088182118679 0.0 -5.687348474890138 -7.847318233762325 0.0
335 1 19.333073230721592 1.1695810423571968 0.0 11.511418129429815 -11.425635620409782 0.0
336 1 16.055062676097904 18.925876750743736 0.0 8.266635992825286 6.256929928900689 0.0