ITEM: TIMESTEP
0
ITEM: NUMBER OF ATOMS
400
ITEM: BOX BOUNDS xy xz yz pp pp pp
0.0 19.7609 0.0
0.0 19.7609 0.0
0.0 10.0 0.0
ITEM: ATOMS id type x y z vx vy vz
1 1 14.930970499823855 0.08160557659188734 0.0 -4.327023788193271 -3.2084834242286133 0.0
2 2 6.582718069051782 10.459198453078093 0.0 10.915115435665129 -6.292118135402964 0.0
3 1 6.006346758590339 16.20830287644967 0.0 2.9011792640172764 -10.966810679998039 0.0
4 1 12.989970287161894 9.243964731056492 0.0 -7.763602512359569 21.347307461634067 0.0
5 1 14.176991639160958 5.1725190292374785 0.0 -7.5238668619268845 -5.288459094763243 0.0
6 2 7.971609835986781 6.2961530660255525 0.0 4.7557017424103085 -3.975026387418731 0.0
7 2 6.159215460097058 2.6858573488285034 0.0 -9.27436638399693 -13.921565751439319 0.0
8 1 12.37298495694646 11.904963715499626 0.0 -4.281827943590409 -2.5833643912170787 0.0
9 2 10.977510201755617 8.68619860245503 0.0 5.285044126853254 -4.165385509239042 0.0
10 1 3.9381916926733176 9.039488444870575 0.0 5.119434220735009 -10.141400894883226 0.0
11 2 2.1630187763531157 14.146634554675103 0.0 7.38717664132227 -2.957516001987764 0.0
12 1 4.470638885524071 2.2917301021430827 0.0 -8.296504610925497 7.838527771226959 0.0
13 2 16.35873509307498 8.988662709328205 0.0 7.048704620937174 6.0509806346926815 0.0
14 2 13.554950685158259 8.224113734432482 0.0 -4.586303299701026 -2.9861482351563384 0.0
15 2 1.7328432248441872 6.601850143076552 0.0 3.1400644723022375 -0.710065793644005 0.0
16 1 11.975617960625666 9.499577071320612 0.0 -7.423605524669297 -1.1049553593377552 0.0
17 1 9.51986356559449 6.1967194486349335 0.0 -16.773430523231703 7.145628657673738 0.0
18 2 7.646909807344425 0.24266289077406278 0.0 6.1963620811909506 -7.72898359769406 0.0
19 1 15.40951829820694 3.7933208320394414 0.0 -3.0854229935252895 -6.713398013568425 0.0
20 1 16.86715546909336 4.155916432709636 0.0 -3.8214980207263065 -23.22028108084081 0.0
21 1 5.751304598908832 10.052229612143702 0.0 4.680177043935639 -1.9871881502747397 0.0
22 2 9.609389797033579 17.25089169024218 0.0 -1.2126592406928625 -2.3034080668555204 0.0
23 1 3.9147043546107203 19.38486117642198 0.0 -6.412740174971547 9.146827689872378 0.0
24 1 10.467219644552236 4.458054545904436 0.0 -7.316944330054625 11.995305821403441 0.0
25 1 7.436916470945189 10.944850006122934 0.0 12.76607514080169 2.814206593078572 0.0
26 1 9.399791580378958 1.0962463784943859 0.0 0.12317893145702771 12.356462150895238 0.0
27 1 19.241604392230165 1.0051421149901334 0.0 7.743759988356335 21.28746472771535 0.0
28 1 10.105743792819233 1.6712921690418343 0.0 -4.279481560363736 -9.418882310355292 0.0
29 2 4.136913038516619 15.196563339319097 0.0 -5.110150658478555 0.06314524046990216 0.0
30 1 3.333188385301875 12.059624167884763 0.0 13.820339726294318 4.649697571844763 0.0
31 1 0.7496095582815396 17.19833949301308 0.0 -0.45346810007255267 5.776436047971619 0.0
32 2 9.193421900478759 12.357264486148011 0.0 -4.03166103268684 0.9427862357928745 0.0
33 1 14.850801605775077 17.992223769901795 0.0 10.428837083027938 -15.445070761127974 0.0
34 1 5.592126065481135 0.8697552586131465 0.0 6.836448008152645 -5.318690076164756 0.0
35 1 16.954454463582156 16.059198216396332 0.0 14.073539990066408 0.5547723157095179 0.0
36 2 8.754945636580352 17.50237414260942 0.0 -3.505106866811321 -7.899594486410139 0.0
37 1 5.301962174498413 5.21250624989276 0.0 10.848155251179286 -2.979035694288884 0.0
38 2 14.828548095161262 14.211948612899494 0.0 13.014739490400814 -2.60214730995787 0.0
39 2 4.3647449555546265 6.96713388810928 0.0 0.349840353065286 1.2109684515831753 0.0
40 1 5.605405741012437 15.389161652487948 0.0 3.2652715543117563 9.943762897199464 0.0
41 2 12.06824897059809 19.15202030486876 0.0 -9.485767085730314 -1.6150352032938713 0.0
42 1 1.55175148271821 5.8041186282095865 0.0 11.482299655905557 -15.306853754064331 0.0
43 1 16.572761711861936 1.814951868748134 0.0 -6.802663021693431 12.814860849268403 0.0
44 2 7.384406154103637 17.418861472913708 0.0 5.188097320343765 7.646235859564951 0.0
45 1 4.905109449410297 6.105627871708472 0.0 -10.507405751489268 -6.478295816293117 0.0
46 1 5.896387427056367 8.277302504221947 0.0 -4.906348266892166 -2.0317857666209282 0.0
47 2 6.912981037843883 9.597651050291125 0.0 2.729692485717554 -2.8656018979617794 0.0
48 2 0.588615152236383 15.43252215099489 0.0 -5.180551058897958 3.749812392696314 0.0
49 1 1.9334473362167315 0.4967548950340171 0.0 -0.7075534749423271 11.324045199425955 0.0
50 2 3.8355132029826784 6.284177473659277 0.0 -5.506404505179388 -1.2630785353575273 0.0
51 1 17.143517815875114 11.402289306887388 0.0 -25.202898065679918 -14.60030473109692 0.0
52 2 2.372854815123001 13.118941524451394 0.0 -5.306998554456906 -3.9923216167996993 0.0
53 2 14.70839931327721 3.0050970551506895 0.0 -8.504039624335306 -2.834827677562193 0.0
54 1 11.34210243816207 19.64772361333161 0.0 -0.38314492448137655 -1.1929039370209873 0.0
55 1 4.559423001613794 11.388009649249621 0.0 -3.604645413537426 3.238910041480908 0.0
56 1 12.021135927118868 11.645670983980397 0.0 -0.7924308754834407 -7.622586612982777 0.0
57 1 17.030557370656048 17.067713770636132 0.0 0.709732042608153 5.693222789330401 0.0
58 2 18.664628764989995 8.528730981590735 0.0 5.6323666438403155 14.4903696882551 0.0
59 2 6.006244407451013 6.18657167062766 0.0 -11.209672520030976 9.528217003275808 0.0
60 1 14.18849502907598 11.316168662801257 0.0 2.309771098763491 0.7121297453662955 0.0
61 2 18.472494637896496 15.995253226679273 0.0 -5.526738896443934 13.329373526340754 0.0
62 1 5.191813601355319 11.345488639487208 0.0 -4.805238675548112 1.3728970273342442 0.0
63 1 14.35857585890999 9.278020419188927 0.0 19.3298607833108 -4.326496189456806 0.0
64 2 12.89190984599629 10.791527090373284 0.0 -0.546711691476786 -12.587058237677224 0.0
65 1 11.325218328473024 11.773235132987587 0.0 -2.320794805038901 8.755163218028706 0.0
66 2 14.692045089373979 4.016026077504426 0.0 2.8456050079918898 3.5672249603535517 0.0
67 1 9.692167676576537 15.965800778089955 0.0 -1.528985091540476 4.754613886447884 0.0
68 2 12.607527558315114 16.477245254925545 0.0 2.103336263135076 -2.564838620210482 0.0
69 2 8.318251504170119 13.349369252864241 0.0 1.379596721374546 7.47220440717401 0.0
70 1 1.6318518373828976 18.333598557094078 0.0 -14.931907832191904 -7.389536370814183 0.0
71 1 10.928309472284937 9.659036321868228 0.0 -7.335435371595085 -9.200723216221709 0.0
72 1 13.701069496142324 5.262657535941703 0.0 6.398460895433121 4.833462268303844 0.0
73 1 16.39105299220243 3.982745297805442 0.0 13.377482962274698 1.8148070646378085 0.0
74 1 2.7445628953214327 11.34779042689969 0.0 -8.013627672513644 -7.54200701067505 0.0
75 2 12.745286256609893 2.6937947424556934 0.0 10.934969745705608 -1.2366914146650645 0.0
76 1 5.230567069890817 8.758571716560914 0.0 4.714691552358232 -3.3429265656731864 0.0
77 1 0.6222684644746109 5.887519983871166 0.0 -1.408310062078475 -0.22118857240547596 0.0
78 2 11.694415025134095 6.281564553845142 0.0 1.4620373128987298 4.00891760721699 0.0
79 1 3.516383350771823 4.498426897964208 0.0 10.156666569585626 -0.34370424862350735 0.0
80 2 8.066054380414839 18.123950378372335 0.0 1.102008876738317 0.03124649291605886 0.0
81 1 12.871073159011011 6.239510349645936 0.0 13.124195108305637 1.5459082702633775 0.0
82 2 2.7562803182901545 6.2432726601915 0.0 -4.917492425808704 0.2719753912093892 0.0
83 1 13.690547306461271 4.018285462653987 0.0 0.9428279485886238 -9.066457802276586 0.0
84 2 18.62350860119475 5.72606547749108 0.0 -1.4327735512974187 1.071474479160522 0.0
85 1 0.8848391463912101 6.336368870988286 0.0 -1.45603524250617 6.913248065498479 0.0
86 1 1.1305139612113955 1.2853279503683854 0.0 11.295758565960117 12.06607845481418 0.0
87 1 11.998981294045503 18.302448700140936 0.0 9.754011498857691 16.617527949236095 0.0
88 2 12.004798758084583 3.091035453048871 0.0 6.437361543140027 6.1171069876002 0.0
89 1 0.8676431584624537 2.871263299788939 0.0 12.569758508100453 3.9802992791026344 0.0
90 2 17.14283056969309 14.861563238251653 0.0 4.48295186856562 2.511661243352259 0.0
91 2 5.858619063885558 14.45695147358887 0.0 -2.0836926694484332 10.253809076548233 0.0
92 1 13.403499404428853 15.187448022994918 0.0 7.891412915317249 2.6713999511790343 0.0
93 1 19.126879040103177 17.23268552485217 0.0 -12.793734183407262 22.884642720560336 0.0
94 1 12.99078065050043 7.4589780173248235 0.0 -11.583127185556274 -10.304026667201306 0.0
95 2 7.456307643591665 2.5542921895193205 0.0 -8.46912161027185 -6.2491652113979415 0.0
96 2 13.45788179640503 1.6966300950220117 0.0 -2.6189163408933966 -6.038681804943232 0.0
97 1 15.900411364787043 2.280132640002729 0.0 -3.6620335085681766 -0.7493445546987797 0.0
98 2 4.5276887662845535 17.924309820995475 0.0 3.094276524059802 -0.2209954340926984 0.0
99 1 10.941842467474578 10.524661918240511 0.0 1.0613901176283294 1.5608799574583536 0.0
100 1 15.527639341297121 1.921249866584848 0.0 23.525052556219748 0.3856509484161507 0.0
101 1 17.991591736048974 3.2384412690900346 0.0 -12.120632303006152 4.490319587956417 0.0
102 1 16.79750056933594 10.168642744054509 0.0 -12.960430046678079 -6.552080256557285 0.0
103 1 0.6869691718176764 6.880118068887668 0.0 -3.6271438298764704 11.771609576431693 0.0
104 2 8.745964729185989 3.130196131382644 0.0 -3.1129073173376867 -5.65748928705668 0.0
105 1 9.072134115098217 3.9271454527536 0.0 -2.885836522911105 -1.8677406953425548 0.0
106 1 16.407596442245033 6.605423894601967 0.0 3.803519231333453 -1.8179351142011029 0.0
107 1 13.942913071891644 18.08728199760991 0.0 0.12428021227826558 -3.4003557075608137 0.0
108 2 7.366915134051959 18.865576736952512 0.0 9.062864747150723 -9.638411427899639 0.0
109 1 14.704387943151715 16.55523455875694 0.0 20.755791815715558 17.198230588567558 0.0
110 2 19.45942292748613 8.87980379582563 0.0 -0.18083704405528492 -4.077584188582946 0.0
111 1 19.657456189801426 14.027372840530896 0.0 10.753151555510899 -6.802091408596822 0.0
112 1 14.180211001733568 14.90878512649788 0.0 -1.59743527488663 -6.035763156878725 0.0
113 1 8.940955773955569 15.474573758641457 0.0 -9.441021446850032 -0.26636085592514036 0.0
114 1 10.353010333618741 15.71982853018227 0.0 2.530149971184945 -1.5524039235530247 0.0
115 1 15.325136759240115 13.572466115835978 0.0 4.30652140553228 3.05862876106702 0.0
116 2 1.3684614359851353 7.5071195760231495 0.0 -7.207228699851831 -0.6922890799216816 0.0
117 2 5.4391067410509 7.503109611202136 0.0 3.6932308387731894 7.336005853872637 0.0
118 1 15.512444000938295 0.6253916663166408 0.0 -1.3652580953712297 -5.672323783564581 0.0
119 1 16.857438936327817 16.535338122521644 0.0 -0.924763522972711 0.23260889673905308 0.0
120 2 14.68177992682104 1.3265724777553867 0.0 5.005264027198796 -7.99044250984987 0.0
121 2 7.630027598913726 15.469452749686726 0.0 4.776017199938984 3.6324529081468 0.0
122 1 15.21815888794295 2.367718067328416 0.0 -0.7767411784047799 -3.443112934319235 0.0
123 2 18.852978296727162 15.08965131117122 0.0 -1.8113397474416226 -0.1701975643596256 0.0
124 2 1.7442148289768125 2.959789409035617 0.0 -2.710527713636875 -10.864855437582824 0.0
125 2 7.9404522895711205 8.913246148920555 0.0 11.81168110998546 0.6396787713691875 0.0
126 2 9.906992510370765 14.92622158221973 0.0 10.13341489513226 9.97677289066421 0.0
127 2 11.576494738087124 4.003187584538459 0.0 -1.4892984981641648 0.5943998058970498 0.0
128 2 10.386054106169205 16.852565155050502 0.0 -3.306877040273264 7.439288141679741 0.0
129 2 5.541858172576311 3.6283693753551676 0.0 0.6323817985083466 -2.119697516996854 0.0
130 1 1.9097188901748814 18.833293571050707 0.0 1.1509373570029788 5.26252048997127 0.0
131 1 5.0125745501968755 14.822173019703492 0.0 -16.17089889233873 -7.761928370299197 0.0
132 1 10.371677459852364 17.774169773022397 0.0 -3.8524519346044186 2.557371069027213 0.0
133 2 3.3218653460515735 15.88564688535637 0.0 4.405873536685703 -2.6927657464667667 0.0
134 2 3.8293933007910703 2.9464262412428743 0.0 -2.2757525118506936 -6.596299914383306 0.0
135 2 7.172376120922821 1.6030999273050905 0.0 -1.3204859887241007 6.4004110291299225 0.0
136 1 9.418161816715092 15.557280761071846 0.0 10.102430618208935 -5.840421637570216 0.0
137 2 16.198674684222436 10.649092671649962 0.0 -3.395712167743093 -4.859379017379744 0.0
138 1 17.566539236004157 9.972529563189038 0.0 -19.80721075742257 2.982077645030597 0.0
139 1 4.501160005692476 0.5485610831069047 0.0 -2.969008216039553 9.438491851372497 0.0
140 2 12.640947115832965 14.49776639977802 0.0 -1.2983457741354307 8.434927575134303 0.0
141 2 16.54143066759811 18.977096705159916 0.0 -2.4568717688611277 12.211038248333058 0.0
142 2 3.59176096465 1.0891983889630712 0.0 -0.00408318103134554 -5.878859768077459 0.0
143 1 5.592274948037538 4.531985602349281 0.0 10.542379230376266 -5.784885910479054 0.0
144 1 3.870066212324175 10.477890674354935 0.0 -5.005123276607772 5.213525475058986 0.0
145 1 7.239007170804989 13.368094187477048 0.0 -1.1142757648399317 7.1024385421041965 0.0
146 2 9.89390749657455 19.00639975733912 0.0 0.24080398082493135 5.362732162105137 0.0
147 2 16.405937672348703 11.619180369619171 0.0 0.24848862748461556 0.4224542399004645 0.0
148 2 17.322497930221495 19.510091683241725 0.0 3.7776269029149327 1.041795121170791 0.0
149 2 17.382515137181336 1.1354363094689817 0.0 8.404464515941212 2.695257669871608 0.0
150 2 17.096557417536967 13.615960242545787 0.0 2.5110335219483226 10.306812162524853 0.0
151 2 10.10433895599081 9.456573787179504 0.0 6.397029362077953 -1.0028800713898092 0.0
152 1 11.963879975972802 8.53197561423694 0.0 6.097494166697604 -16.32422632691604 0.0
153 2 3.648013391799425 18.657900486176565 0.0 -0.37765585539505353 8.83405416288239 0.0
154 2 11.295398386443775 14.044438818502414 0.0 -12.318268206461754 2.7803313219306904 0.0
155 1 15.82794501786688 13.24619681357489 0.0 -9.047164365913838 -7.022899636839374 0.0
156 1 11.561184915183954 9.64143313901382 0.0 6.678601417269145 6.478995913282386 0.0
157 2 1.8791971802432264 11.407226088664457 0.0 4.098336969055018 4.0770937291496425 0.0
158 2 13.720335969167058 11.899922758038857 0.0 -5.109479101164208 -9.03767021708569 0.0
159 1 18.20516660921773 12.077469695941113 0.0 -2.383554524496188 -2.5514968712221284 0.0
160 1 11.792424066320784 12.245455665539819 0.0 4.146415223795369 9.016055353762626 0.0
161 2 8.98920727260559 19.72905703002684 0.0 -1.4365234484192246 2.5093072784919412 0.0
162 1 0.2288732886100656 7.34381424414607 0.0 -12.66032680466161 5.550668726360467 0.0
163 2 7.670379052530671 7.2778983740856305 0.0 9.672992649887496 -5.064392260009222 0.0
164 1 5.421556618696538 9.364009832631947 0.0 -0.6482946540809582 8.894694218027201 0.0
165 2 14.459734999877922 7.0937785667922935 0.0 -6.057958140903033 -2.162123173324568 0.0
166 1 13.182994401035204 9.681217882295082 0.0 8.33786253980878 -0.14952269383248126 0.0
167 2 13.484488581132148 3.1229295488438433 0.0 -1.4245965629116717 -5.918131846080872 0.0
168 1 3.184336138646365 13.024542071512409 0.0 -1.7217672274072857 -2.860672016837572 0.0
169 1 10.975830975751954 13.234269485806745 0.0 1.003398247979886 -1.2331480370902077 0.0
170 1 14.902804027642038 18.476845956285924 0.0 -6.432909280331406 9.489096624221618 0.0
171 1 0.19720727841858815 4.934714302912607 0.0 -4.053822247724142 -10.885495386610495 0.0
172 1 0.23233281079392032 10.589405175607324 0.0 -16.24457591554217 -3.9141574956129936 0.0
173 2 10.855530415520592 5.655116867887183 0.0 -2.8860151184529097 -3.393857407717104 0.0
174 1 3.8176592782728647 4.117391131898174 0.0 -2.662272777477416 -13.959800752731933 0.0
175 2 13.814577781787802 0.0815673506275271 0.0 2.186678084934813 -1.14086563836461 0.0
176 2 7.419272035429656 8.011577036327308 0.0 -2.7635298645673583 9.751350522330036 0.0
177 1 1.3857993179740198 9.619534514302222 0.0 -1.9240271874041261 18.713355472847915 0.0
178 1 4.670037636159788 3.8458412354945235 0.0 -1.4488176320079078 -3.0964925342729366 0.0
179 2 15.812459753130096 3.141041278037347 0.0 0.818790124870467 -1.154906587949177 0.0
180 2 10.110865822962824 14.022991869725352 0.0 -5.194804735066352 3.2026787253276536 0.0
181 1 17.16846424382374 2.805220141642605 0.0 -5.675488221023249 -0.5617933076328512 0.0
182 2 12.007477052408342 0.615492856761916 0.0 11.28746667672021 -6.84288092025271 0.0
183 1 8.557736257714904 2.134597972248302 0.0 -8.629030693447852 -5.174034026177064 0.0
184 1 13.30195094985012 13.394639753914655 0.0 2.2776797100415447 -9.564541048873219 0.0
185 1 10.603371130992766 10.238052575589018 0.0 9.414835689357677 10.86242661296537 0.0
186 1 19.216820139663643 13.151064605561064 0.0 -2.1462141506897865 9.774048532267374 0.0
187 1 3.2978821775353007 10.641153927725988 0.0 -0.8623605116739673 14.118469843392328 0.0
188 1 11.13601958017784 12.612884143740759 0.0 6.359530184930823 10.945573821114028 0.0
189 2 4.604664916469007 8.034799684026254 0.0 6.9560673015228325 -6.134933949992951 0.0
190 1 9.482513824987066 13.491301207715052 0.0 8.342387510563713 3.464885547078565 0.0
191 2 19.357460594846756 6.786327339472203 0.0 -2.196489310158138 -6.558782459291087 0.0
192 2 8.45322702865606 0.8205945367578161 0.0 3.9617273734395866 -0.5978814918763857 0.0
193 1 18.776091328797385 12.857521548515049 0.0 -16.008103613470755 -1.7605786451142837 0.0
194 1 15.939070059134014 18.40923128950426 0.0 -0.3168109896505596 1.6341967406938098 0.0
195 2 5.05419399952507 10.599634720440331 0.0 -7.022546269568869 4.727394081296621 0.0
196 1 2.087747105501857 7.235317685790939 0.0 -9.686708041021125 3.1565889735082053 0.0
197 1 3.26183029747629 10.062529997234925 0.0 -9.148663834046737 3.677556622003021 0.0
198 2 2.611438017174331 1.1149241706990942 0.0 -4.85213629646248 -2.292448574548233 0.0
199 2 17.339473019996348 9.178275063168542 0.0 8.482126809304471 -0.25814478544318886 0.0
200 1 16.65064583501649 17.31097849684056 0.0 -7.4201586346151664 9.231280572180502 0.0
201 2 16.020034308644306 14.354692825264715 0.0 -8.783197039130675 4.482315310277911 0.0
202 2 12.567473175642514 1.5362004291020572 0.0 3.5638730833159022 -2.1947969958787374 0.0
203 2 9.919209545012528 5.503169456923563 0.0 1.7299587233768177 1.8165002285130656 0.0
204 1 9.610792339955468 2.076995804686058 0.0 -0.13984288592480582 10.094581192088071 0.0
205 2 11.56497614170248 1.3696242065712347 0.0 -4.495481517768822 -0.07570735782099187 0.0
206 1 19.537699548057 16.391459029521886 0.0 -1.7333260383719342 -8.999453941997436 0.0
207 1 2.0705759491699114 5.723279607529448 0.0 -5.27235648831417 -7.091735970656858 0.0
208 2 19.41400060190114 4.347650339756441 0.0 4.987063966921531 2.5566527090469107 0.0
209 1 17.14654607486303 3.427506864156872 0.0 2.202057893689149 0.8525521510372843 0.0
210 1 11.484360172918667 17.877702910557744 0.0 -3.2119914561748795 11.696347506452062 0.0
211 1 9.180727032055982 2.0593877501582423 0.0 4.893927483034619 2.0445306355359496 0.0
212 1 0.6763744138752289 9.34665846848229 0.0 5.209319852628603 -6.022540999148641 0.0
213 2 16.1296908737693 15.556537521086776 0.0 -2.1535727709700634 2.234579527817045 0.0
214 1 2.942819958667069 17.01562679669609 0.0 -13.27101024268051 13.583924384700394 0.0
215 1 6.777632861874229 8.747526546816403 0.0 5.609004864620005 4.892207915534233 0.0
216 1 10.295651418539865 0.11058606351647231 0.0 21.237967695345965 4.895509712624896 0.0
217 1 10.966992703800878 19.30813992521825 0.0 -3.405619824922027 1.4012947225036625 0.0
218 1 1.2011721562800788 17.433503821786687 0.0 6.631708758427739 -4.330982687900564 0.0
219 1 0.878173774965367 14.230794087134672 0.0 17.125110581373292 -20.78779171426089 0.0
220 1 0.39670688594732695 16.271019055532143 0.0 6.419955005567687 2.6777005420726723 0.0
221 2 13.225449432034852 19.034305524358494 0.0 2.433271403931878 -10.341154733431914 0.0
222 2 16.682113574318354 12.683469023774194 0.0 4.234890359833652 -0.8862340518677911 0.0
223 1 10.963590262512836 11.3228376625036 0.0 -7.482744163763672 1.2861959996834813 0.0
224 1 16.302516625962113 4.738653229485841 0.0 7.235409236454723 -4.093014813695487 0.0
225 1 3.6817982011206025 16.833149007767215 0.0 -9.759557831625017 -2.7374814038283533 0.0
226 1 10.716365872634906 10.938970209662132 0.0 8.34296252386535 -4.002679414171558 0.0
227 1 2.2007202700577184 16.141801256163827 0.0 18.314693776915266 4.277112683935358 0.0
228 1 17.557179860043775 17.463783412894823 0.0 -5.928776546481226 -7.062971648369629 0.0
229 2 2.512982692588571 3.928642461351256 0.0 -1.323583209744716 6.629950451165013 0.0
230 1 6.130545564040762 9.254218942816477 0.0 5.019186865425252 2.5351812627814554 0.0
231 1 3.723155308672728 8.333462909870873 0.0 -16.225842768733802 1.7875547480666663 0.0
232 2 6.204767443306281 18.59989951923744 0.0 3.472955551761072 7.041558310123361 0.0
233 2 14.90192960922788 12.790089040402782 0.0 0.9752571489775459 0.0524576011673896 0.0
234 1 13.328534523781334 17.211289949114146 0.0 1.2488905651908089 3.4404536208287935 0.0
235 1 19.068544545903606 11.756986682454748 0.0 1.1427174603941652 -2.7585314461392882 0.0
236 1 0.8954431510856747 8.136638176128034 0.0 1.3199431178678627 -13.557232975720703 0.0
237 2 4.980933964493138 16.34077151109305 0.0 -12.79738667556025 11.2680829053741 0.0
238 2 2.9574153315428524 14.80853186948925 0.0 -1.0698495456564963 -6.8391309832850995 0.0
239 1 3.1026273773569484 19.298307633716124 0.0 -18.607618257112076 5.067583112605159 0.0
240 1 2.607601216964198 16.59007173856228 0.0 -9.915258992141439 3.725965279144282 0.0
241 1 18.71742528620296 12.15080767752256 0.0 -4.763600825302495 -0.37314539982468575 0.0
242 2 6.523411510759996 17.763919778835618 0.0 -4.444909830491203 -4.364608759960219 0.0
243 1 5.285707710274162 18.16575696938958 0.0 3.8868861155712118 2.2622855463340303 0.0
244 2 8.368045269234424 11.591854998232161 0.0 12.597745555408647 -1.9446831872339778 0.0
245 2 13.59516201352058 14.375346419988338 0.0 0.9128917718040735 2.9624725473000404 0.0
246 2 12.764204392095108 4.061881973655574 0.0 -0.4001708284476645 -0.7333401115625863 0.0
247 1 3.9452944285314566 0.08305350110999693 0.0 6.577286825803511 0.0022940671747778457 0.0
248 2 6.632287670035386 7.650574016329097 0.0 6.444462305841688 -4.80161633179456 0.0
249 2 2.500460752662299 12.265970768203317 0.0 6.0938450330322915 -4.2527288737776745 0.0
250 2 10.654761421709303 6.786075770186873 0.0 -8.063390257556424 6.593712221629315 0.0
251 1 14.795943629088164 9.716455428934276 0.0 -0.8030723498959524 3.3480032986100343 0.0
252 2 6.9278520258900045 6.220988557511774 0.0 1.708347089776794 7.2825052284492005 0.0
253 1 14.704054438936545 19.1711672106106 0.0 12.955568310889456 -5.678821883849853 0.0
254 1 12.316953116619489 9.206397450148998 0.0 4.021305383886944 9.599659174300028 0.0
255 1 13.706901083996632 9.281249248027425 0.0 -11.009933164628455 -13.486670699517086 0.0
256 2 9.342523116000608 10.852710512927935 0.0 6.459422933008593 -6.088182234169418 0.0
257 1 0.6488805205916243 0.6970071731982199 0.0 -2.3508002673178847 6.843800376753056 0.0
258 2 0.14691844811804008 3.5231829501823992 0.0 -5.177755153077226 -4.162730010585402 0.0
259 2 4.360395239276774 4.643657083126769 0.0 -0.3717600442351904 -12.526851769697263 0.0
260 2 6.895231005867584 4.44963356218326 0.0 -0.75150268264045 -11.42475996975515 0.0
261 2 2.801114034799845 8.742766967915566 0.0 -4.682804284234423 1.60382896085125 0.0
262 1 13.24886413737942 15.800304051422001 0.0 -6.4425772484060975 9.215390936194837 0.0
263 2 7.01885870305319 3.599964005501108 0.0 -4.740131029553327 -6.001692538635692 0.0
264 2 8.266246159574727 10.682746280487752 0.0 1.6396352375659982 2.7536973735196124 0.0
265 1 18.00784413433397 8.130235077363213 0.0 -7.052323203889711 7.378889784529482 0.0
266 2 17.20005925192364 18.29691698795123 0.0 1.8873403821458645 3.82070069734055 0.0
267 2 0.9091451378508479 13.255687085295476 0.0 3.5246519421335933 7.320989752961221 0.0
268 1 12.596189028201527 7.840366642630852 0.0 -2.8553159938090387 10.96159040669098 0.0
269 2 19.710232865480947 2.406947748667895 0.0 6.7104763630049 0.24303592987074607 0.0
270 2 1.016548549347807 11.601865941076918 0.0 -2.8670343714910276 -6.579878307793917 0.0
271 2 10.304844089277623 3.6698427325763427 0.0 -5.0770008427309135 -6.98404268129081 0.0
272 1 3.7667455229719677 17.60264294902147 0.0 18.982875257878877 -4.628331215137532 0.0
273 2 11.93623596779422 13.346393538948469 0.0 -7.7422732606885045 -6.253662248386303 0.0
274 2 15.494369210674169 7.936008879130531 0.0 3.148834297576921 -4.212083825166748 0.0
275 1 1.1576621221219556 10.219804760626 0.0 5.43038488859456 -5.54807357985555 0.0
276 1 18.763089759922284 2.8651199157786937 0.0 -9.790053290150958 10.056679299235359 0.0
277 1 10.316094537088091 12.47255671790161 0.0 8.594869131754487 0.8932012378154148 0.0
278 2 12.712677763189397 17.614395884427108 0.0 3.6290141562428677 -10.646940211450612 0.0
279 1 19.037170563455117 11.099486110297947 0.0 -5.414976534472132 -4.835174654311739 0.0
280 2 6.681026110338877 0.7453295866121868 0.0 15.10246386243996 3.1545674520850535 0.0
281 2 15.090638931533407 15.54537941358859 0.0 2.0213616527017653 -1.9376049228663372 0.0
282 1 18.132648386337213 10.437676292890353 0.0 9.439074393418963 2.5872234745539626 0.0
283 2 11.098124044949508 7.870890074870583 0.0 5.51656337536456 -2.8014110254286178 0.0
284 2 11.07898843389363 3.050135484884507 0.0 -2.5257508993460394 1.4761010496954006 0.0
285 2 18.36302796605605 1.8736834763111365 0.0 8.523943831355936 3.8080016166210733 0.0
286 2 15.051356438096615 10.86010927894043 0.0 -6.932867174743168 -0.40133900056448185 0.0
287 1 16.826178344016647 4.745931788618244 0.0 -7.668133756661253 -5.934402323302771 0.0
288 1 18.292881761502542 11.526651758826047 0.0 -15.708439061402473 -11.930579663296717 0.0
289 1 15.359348815987595 10.124193249373521 0.0 -23.883604388722105 19.243240539762073 0.0
290 1 5.5761019391236895 13.297211595211678 0.0 -14.737072314022642 9.405687969826245 0.0
291 1 16.454832340278003 2.7179137343685866 0.0 7.222923609805321 -3.2267635728027098 0.0
292 2 7.84372058183235 4.42515458418633 0.0 -8.89861672864766 -4.043001800940706 0.0
293 1 13.118761067561735 0.42442196142533173 0.0 -0.9105168973840638 -0.8113699631931796 0.0
294 1 0.9372321973244486 16.738518080038553 0.0 1.5308480043631898 -9.817304501295176 0.0
295 1 2.2295291443008916 5.182485216610264 0.0 23.125037688714286 -3.2874535654172625 0.0
296 1 6.908954101827982 11.335588573737965 0.0 -8.197329226335022 6.641103424764119 0.0
297 1 18.010537038545692 14.10205961457904 0.0 7.820014317323038 1.990105015742444 0.0
298 1 5.2069985726892405 6.46171376778779 0.0 0.995623544301274 -13.306599634506068 0.0
299 2 6.61159419042714 19.639305263566733 0.0 -5.23800285728259 -3.3996245334502135 0.0
300 2 11.912831736311531 15.908909287435485 0.0 1.5653484545341383 -4.994588093059057 0.0
301 2 6.58880327357244 13.885123586163537 0.0 5.0723801389733385 -11.00849065111496 0.0
302 2 10.988261618652034 2.0895515880552114 0.0 -5.063788388479584 -0.0637074417587227 0.0
303 2 17.77200087976562 13.112126337915178 0.0 -3.1560056277679944 -2.291171858586825 0.0
304 2 16.083946120764665 16.656824705809466 0.0 3.3334759851984654 1.8526504532256571 0.0
305 2 19.19651001601511 10.227854916819991 0.0 11.292905396211 7.770681880744473 0.0
306 2 2.8942292496233892 2.7947331370923294 0.0 5.374111500244589 8.48411797111539 0.0
307 2 15.14815437144896 4.958716464439519 0.0 12.205302111715723 -5.338550831926464 0.0
308 1 3.2744813641699486 11.090032607276386 0.0 -2.4311437688550472 12.29678419162215 0.0
309 2 11.98657784019573 10.846553958767736 0.0 -7.094090078643069 -11.42772310912121 0.0
310 1 8.862516367495317 16.479815182039555 0.0 9.632700864659464 -0.5795576583946637 0.0
311 2 10.078889630187444 2.681693885204818 0.0 -7.05661297676645 -1.9449895511698416 0.0
312 1 12.636208366419066 15.501080385135435 0.0 0.23276171187098804 -4.2644475759029 0.0
313 1 15.747070456975608 12.749830185292366 0.0 -3.683452970584691 6.101827135902579 0.0
314 2 15.695128294009706 17.625803235146794 0.0 1.9932337736127193 2.4850650721611323 0.0
315 2 18.156551691226564 4.24048848156156 0.0 14.445288279618797 -12.183244148221174 0.0
316 1 3.684986873864249 2.009886207410293 0.0 11.525644090796499 9.887091918735628 0.0
317 2 13.99714736287408 10.266319000003126 0.0 8.849035148456991 -1.932504880743563 0.0
318 2 1.5509453507140014 3.973863903564155 0.0 -2.8804484579483156 6.317976832500515 0.0
319 1 12.312622680672703 12.677098297292748 0.0 20.654556256510684 0.1925774783902096 0.0
320 2 11.46305838171819 15.111735028101613 0.0 -5.786889601947146 10.499798959209034 0.0
321 1 8.479392374907016 5.6443640914685504 0.0 -11.780197041222438 6.732955875843455 0.0
322 1 1.5377767645310196 17.07498361552656 0.0 -20.700877835439304 -1.405937735419608 0.0
323 1 6.5916178654359 12.362562051206186 0.0 -3.620522150699235 -19.856841551201583 0.0
324 2 12.860071460422564 5.108234743177507 0.0 13.443457992790353 -3.576939822054204 0.0
325 1 0.36729097182227266 1.4432489623116305 0.0 7.075308704029731 14.697757033434755 0.0
326 1 18.156280371572066 6.793661101255625 0.0 -3.376182934478109 -8.289529888451357 0.0
327 2 16.434466312972702 7.953632628474559 0.0 7.495657667733888 -0.6948202407038171 0.0
328 1 16.37658528502497 1.1841185347482994 0.0 4.253541385081366 -5.885604459760755 0.0
329 1 11.545265377835621 10.13328804683253 0.0 -8.762747528108378 6.999882579517559 0.0
330 2 15.2689203127632 11.890217542568072 0.0 -8.585455699219594 -0.07848020292741413 0.0
331 2 8.80345068198559 9.721403425898226 0.0 7.595324536105527 -0.3049309967537643 0.0
332 2 2.1120945479027577 9.250892338002307 0.0 12.377717934639604 7.457158832776607 0.0
333 1 3.457499230261464 9.16348577332931 0.0 16.57867576846522 3.404035955105327 0.0
334 1 0.28420224341578226 10.050094939470904 0.0 -3.7558511755888864 2.5570177277973323 0.0
335 1 10.8234461169766 18.366470430183604 0.0 0.43579215492954415 11.319056989289763 0.0
336 1 9.222486950043042 14.30516007745502 0.0 -15.501370509212787 -11.956500701930821 0.0