ITEM: TIMESTEP
0
ITEM: NUMBER OF ATOMS
400
ITEM: BOX BOUNDS xy xz yz pp pp pp
0.0 19.7609 0.0
0.0 19.7609 0.0
0.0 10.0 0.0
ITEM: ATOMS id type x y z vx vy vz
1 1 14.245127140294871 10.427418380070652 0.0 4.114598877853434 8.30422182715113 0.0
2 2 19.054574341730397 8.801205395886793 0.0 -3.405072775389102 3.5291259275529496 0.0
3 1 16.5813305892651 8.908246897765911 0.0 0.6104210944383939 2.3702076379048576 0.0
4 1 12.070782492341904 2.220173565477254 0.0 -8.996537943200197 1.7240864056979959 0.0
5 1 13.458971616318882 13.04352107660465 0.0 -4.754867923174277 -21.53075153176754 0.0
6 2 9.144533492269463 15.042447511536801 0.0 -10.604173418458858 -0.2878426990479141 0.0
7 2 2.5312238415861366 16.959151084307848 0.0 -4.606608799307641 4.505053534129824 0.0
8 1 16.262210697357503 14.162139913272561 0.0 17.480389271196195 -7.451066000987061 0.0
9 2 3.909636773690741 17.871424014939606 0.0 -1.8557297337424652 9.364749097256746 0.0
10 1 2.869293037823529 9.088194114721777 0.0 0.13035644286739767 -0.9839857269364315 0.0
11 2 8.842791061706496 5.435112026161234 0.0 -9.731928213210645 -0.20365370617957507 0.0
12 1 15.130661745861945 19.36830041866262 0.0 7.58900185519096 7.632262124979902 0.0
13 2 19.211480916306243 6.3155703241485295 0.0 2.6847764759994073 2.9989631670581924 0.0
14 2 16.707603260251176 9.649267816936998 0.0 0.9880719279494791 -4.939018286534129 0.0
15 2 10.293370752064877 11.887979130025755 0.0 -1.0519486192174752 -1.6841711221649258 0.0
16 1 0.2744989963882306 14.402417253141538 0.0 -1.2728794336530975 10.999780968048642 0.0
17 1 3.635246107368741 0.8740574293004006 0.0 -19.348624237311142 15.627851727552668 0.0
18 2 7.8946801305037875 15.241328281380623 0.0 -0.8460473814798454 3.6429271355384794 0.0
19 1 3.604880932552132 8.476652575378212 0.0 -1.717281365213295 -1.8116873377169178 0.0
20 1 0.2984915940491252 5.798893987178346 0.0 13.10808614228211 -3.958829809291465 0.0
21 1 18.677216060545952 15.197147738306814 0.0 8.304169667963073 7.402375631034991 0.0
22 2 10.724986501209031 3.944643453594921 0.0 -8.167096217908984 -4.167651324348336 0.0
23 1 16.67589879089272 3.81034229527929 0.0 5.2536973907461455 -6.29471197080248 0.0
24 1 16.439371488909444 4.90998471698549 0.0 -6.685357549289767 16.013107281439478 0.0
25 1 7.547467142487542 14.003105741976997 0.0 7.5051044731664485 1.9618847396170656 0.0
26 1 6.178056740785572 10.271477080885132 0.0 2.693437643467158 -1.3921437201013467 0.0
27 1 13.676317084398743 5.781734178487517 0.0 0.0751227457665774 -15.255782015026847 0.0
28 1 16.24721892001719 2.681077994522828 0.0 -10.344849558748692 -3.7620701551855755 0.0
29 2 10.953234629473176 7.465921136260566 0.0 -1.9762500133064815 9.23808778890549 0.0
30 1 15.674398501634087 19.396604098135413 0.0 8.15426275805737 -2.975415519141996 0.0
31 1 2.1044364154080544 3.9057126893509353 0.0 1.782458823994519 -15.211693694326735 0.0
32 2 4.304112697520076 12.149804888949811 0.0 10.888541009891386 -3.2355074495532707 0.0
33 1 10.213470241593043 9.637942165355552 0.0 -12.727991637116864 -3.403859230326377 0.0
34 1 2.7015634438860867 12.110067887240556 0.0 0.29519796153503824 -10.586919910576599 0.0
35 1 19.27542866052826 15.066203312201171 0.0 -3.8427407971625613 13.480711891708642 0.0
36 2 14.57899507979101 3.015959822189941 0.0 -11.151004921675533 -4.440262090153552 0.0
37 1 18.91458546891335 7.9898524225375525 0.0 -7.976464873178168 -2.652059204081703 0.0
38 2 2.695275851298449 6.131580694372494 0.0 -19.745052842007848 1.4308041007910943 0.0
39 2 7.928668059980691 4.831807567035119 0.0 -12.54646794259129 12.167102411157975 0.0
40 1 10.746616080595444 18.99480905801996 0.0 -1.2760697684008397 15.208053277057166 0.0
41 2 7.113469390686052 14.768618958479115 0.0 -2.1441936809897855 0.6973600771025272 0.0
42 1 1.6932860125002105 13.148854289929732 0.0 -9.998248958800902 -2.1486533749821626 0.0
43 1 15.075634673125439 0.16604263845284742 0.0 -8.496415568562911 2.101365576968469 0.0
44 2 2.9786773450160187 0.07406444553260529 0.0 3.1351905684208705 -7.442609257371701 0.0
45 1 19.2737818772048 13.870866068656502 0.0 -3.894817536756437 11.465740633764678 0.0
46 1 11.438737774804439 5.56748919902454 0.0 2.820972027493557 9.17156901499133 0.0
47 2 1.2153934866389993 4.264489315490279 0.0 -12.10379025643346 -5.4508457722284 0.0
48 2 3.306586833473332 11.425822034113315 0.0 -7.893849077681559 -3.734353561240576 0.0
49 1 17.264613599305008 12.474325822413638 0.0 -3.4586197249727615 8.153752630673607 0.0
50 2 16.016665629092266 1.0868329415615354 0.0 0.7621802381685061 2.200718469961504 0.0
51 1 16.19865479670488 15.942288461215043 0.0 6.3953539731269355 -7.337002521516571 0.0
52 2 1.4511477850966792 11.008421292172846 0.0 2.6516388072226644 -12.207553546439161 0.0
53 2 9.99068233133863 12.872427625031605 0.0 -6.136822648450629 5.740037275484399 0.0
54 1 6.361990701872967 9.462467896910141 0.0 -5.008107408761013 -9.219779670695804 0.0
55 1 15.3826454122033 14.585325424454386 0.0 6.382815848635811 4.574947662699399 0.0
56 1 11.903866564950656 5.480789484228522 0.0 4.470307255096838 13.755114460342263 0.0
57 1 10.576176551248132 18.373273636111314 0.0 -9.237608084503918 5.265041254323617 0.0
58 2 6.508912051419695 15.566669183121665 0.0 5.816644697299667 0.5374097571404726 0.0
59 2 9.426000760632116 7.760370734829759 0.0 -3.6091935486861417 3.654072557038091 0.0
60 1 5.930923303416234 19.45371458235032 0.0 13.893647065894616 -4.440777590906387 0.0
61 2 11.45274937102354 3.1292390625157225 0.0 -6.103832694157413 1.8306021933687016 0.0
62 1 8.973578128380451 9.87765788765473 0.0 -11.165991955644156 1.2017064812322416 0.0
63 1 9.054998965864046 16.128864686420144 0.0 0.005476508266747311 2.9728386788089596 0.0
64 2 17.495504279322812 6.088888819716574 0.0 3.0189273889937915 -10.749063844237789 0.0
65 1 18.514006126779798 3.9674217301472696 0.0 -9.671745769761664 7.130004131796199 0.0
66 2 18.543828107009524 18.695211139849615 0.0 -13.162824858996569 1.4824957184192182 0.0
67 1 17.078546321427435 1.3265893729199247 0.0 10.185272995246565 -8.238242570476487 0.0
68 2 5.820017893772294 17.883029678801517 0.0 5.77557856893171 16.68207781376086 0.0
69 2 14.987954832007723 10.170239021614176 0.0 0.7443361140553736 -4.182083059720987 0.0
70 1 5.442856479985313 9.903393141609133 0.0 21.279662997177333 15.244369147920601 0.0
71 1 10.526330651504773 6.014438276798458 0.0 21.318928509013727 -6.159352419102841 0.0
72 1 18.412853616484476 10.424874897937627 0.0 -0.6686591720226863 -5.340121148214041 0.0
73 1 17.137704595777393 3.508835105199484 0.0 -2.4618348439499025 -5.758487990982865 0.0
74 1 10.216990801290523 19.25337543082016 0.0 -3.9011319961510855 -8.664227672007492 0.0
75 2 0.5760068486647091 0.4348598948940197 0.0 1.2866344741618254 2.595975136102373 0.0
76 1 10.969793974186487 13.34325987778095 0.0 -4.9543583919305 -11.188986450799945 0.0
77 1 8.841872873556477 12.50025785397288 0.0 -2.8295376599512694 -4.490874824870667 0.0
78 2 15.776908201744035 12.3311012087049 0.0 10.085510900432975 -1.9219364983902476 0.0
79 1 19.198823600915947 9.966203774186269 0.0 -5.013762089323938 3.5275727079976305 0.0
80 2 15.532985906726715 8.823938908172472 0.0 -1.4732918246311562 3.3510484979787485 0.0
81 1 12.137410598093714 1.5914452812971451 0.0 1.1116035077768671 8.088713167158842 0.0
82 2 16.863543698330336 17.17904283905421 0.0 4.311677227528462 -2.4281120998681804 0.0
83 1 17.793262929398878 6.906824288903422 0.0 -5.061892801079932 7.084970429984335 0.0
84 2 10.54163768044925 1.3173111094962202 0.0 4.899601419421509 -8.832004315145848 0.0
85 1 7.037032523397109 18.24416572374767 0.0 -15.990392379949787 11.133830478378941 0.0
86 1 1.7675511245051276 16.778008680202433 0.0 2.484222299418909 -0.4420525807166898 0.0
87 1 14.276440574674819 7.096071899027981 0.0 0.7555418352623131 6.614333413629865 0.0
88 2 14.527681683479933 9.47446750630447 0.0 0.9822576626142333 3.230821187082121 0.0
89 1 7.823829631018835 1.1514007973987688 0.0 -4.997360653867515 -11.993649521751141 0.0
90 2 3.0259430346736944 5.064415638990988 0.0 11.291865138762939 -7.975885976966377 0.0
91 2 8.164347643264795 13.17365222705487 0.0 7.1469477264661645 1.0058372741026573 0.0
92 1 7.952195223594946 3.7016634537719515 0.0 9.973373416024376 8.067273143385266 0.0
93 1 17.608108250519997 12.122938732096738 0.0 11.811185915654328 -7.437864444420611 0.0
94 1 13.399686704943312 17.369124162495268 0.0 1.6817083581070142 13.369330388540616 0.0
95 2 12.238809426628297 14.625532005329838 0.0 0.534369566734789 13.034043314443299 0.0
96 2 4.920228518912058 11.511526101693335 0.0 8.457177256495047 -0.5554244895209265 0.0
97 1 16.02021419048034 16.567921743004135 0.0 7.399638505810635 4.543378053032069 0.0
98 2 13.9604749564636 18.06800846314504 0.0 -8.722412634073248 6.564518010853286 0.0
99 1 7.556625758450978 11.901921521330046 0.0 3.081910759806714 3.793141901710668 0.0
100 1 16.36568488798587 7.917025632356882 0.0 -1.1171169311721394 -5.066724920220199 0.0
101 1 6.472190644954526 19.072620269105848 0.0 7.663815801888288 0.991580095023107 0.0
102 1 3.5213290491445 6.970378559603529 0.0 5.83313518039926 -11.04554560398924 0.0
103 1 12.489494724221865 17.58008849421402 0.0 -23.978984975397644 -9.13722563847194 0.0
104 2 2.5120132240541744 10.114277354747651 0.0 -0.32665611850446874 -1.511806518900084 0.0
105 1 3.2032064432289182 7.986415269655065 0.0 4.560887089213219 -4.538982658841249 0.0
106 1 19.315493673780647 12.95352923663725 0.0 -0.31115387229643876 -7.8461016066048765 0.0
107 1 9.43418583549874 12.38000817320589 0.0 1.6646584449668038 28.19999671771966 0.0
108 2 15.213602115021555 1.005320260326944 0.0 -8.457225979212739 4.573668513661196 0.0
109 1 12.609850812329764 4.808837374930511 0.0 -11.122104153553671 4.831077770001588 0.0
110 2 12.583814649968739 0.4336361786620705 0.0 11.242961997768731 6.899677080202912 0.0
111 1 12.210982911822583 13.544633872518649 0.0 7.095537248384742 -1.106596420585337 0.0
112 1 17.172173934112443 0.17519125758210086 0.0 6.812716267638728 -20.011033384810677 0.0
113 1 15.551138180435824 4.23726330599356 0.0 -2.19036498175596 -4.767962980840805 0.0
114 1 17.243856743538903 11.055669890826378 0.0 5.404376908178134 -10.126563765511662 0.0
115 1 11.868677681858843 18.494197495811772 0.0 -3.1447569627282057 -1.048432315630096 0.0
116 2 7.233240511518881 1.9149067805776825 0.0 -10.782928057112683 -0.9065836129786231 0.0
117 2 15.617294686501925 17.967941975751692 0.0 -5.985201095794958 -2.745474121031687 0.0
118 1 6.6460123997812275 13.801592826438164 0.0 13.843380639691587 -16.25513572522919 0.0
119 1 19.557969796931655 3.786470962209912 0.0 10.986090159590274 -2.2654332141959195 0.0
120 2 4.219990187551647 6.500591052631731 0.0 -10.407179249627024 0.4582070247026832 0.0
121 2 14.459375726660683 15.372180766422117 0.0 4.987706845692497 -9.74595423666344 0.0
122 1 5.236486626480885 0.962807282221955 0.0 -3.4730401057964695 -17.001947050462807 0.0
123 2 3.684397245927498 15.540913411744882 0.0 3.6868652497401637 6.7738735597999 0.0
124 2 14.595310901788816 16.15969196248443 0.0 2.529981623813415 4.999302568058378 0.0
125 2 7.867889078983457 5.736362767058762 0.0 10.226375146972023 10.617209427123454 0.0
126 2 9.268997463112058 17.867498009146423 0.0 -3.1719067935310017 3.4205961243049297 0.0
127 2 1.1884376207953213 19.448394900019142 0.0 -12.482839083856854 17.137625034241893 0.0
128 2 0.9783189458586964 16.524957203221188 0.0 -5.601490475735061 8.65206144266982 0.0
129 2 10.147184125485417 13.851279459108978 0.0 -4.258469579715493 -4.863645640692678 0.0
130 1 13.285454639707957 4.478358839517885 0.0 14.413978013976227 -9.160111244106414 0.0
131 1 10.06092073786395 6.194483335175728 0.0 -7.2235368583403 -7.424370060987785 0.0
132 1 1.9836762589230623 2.9850585565698866 0.0 0.22241855096286875 -8.73021737613112 0.0
133 2 6.086372224699735 11.125763809550271 0.0 7.203395760674943 1.0387477909970444 0.0
134 2 18.213322828632325 14.466247933269651 0.0 2.0924939978044734 -6.620525127853826 0.0
135 2 1.8374798980150928 1.9276681799992288 0.0 7.956900255834707 1.2535159030879022 0.0
136 1 0.10309020247746778 8.403254724321501 0.0 13.671370152597248 -4.8818049164940955 0.0
137 2 0.48256745181607463 12.765860668397426 0.0 4.086114710079826 2.7695776435698987 0.0
138 1 16.284745180054045 6.339290817949604 0.0 1.3855274642110942 0.7003991545007638 0.0
139 1 14.477251863163518 11.154917265963892 0.0 0.39817084215699383 -3.365440195904571 0.0
140 2 15.545235510466988 11.24768833324665 0.0 1.570878794039755 7.882476288082854 0.0
141 2 7.281963098566431 17.390706859204357 0.0 -1.0228535194611927 -9.094940826930607 0.0
142 2 18.260146852350626 6.073485455175192 0.0 -1.6394798587141919 3.3639925427489485 0.0
143 1 9.62916697106813 18.81626781045158 0.0 -16.870389556242834 -7.28120069208703 0.0
144 1 3.0804547322053644 17.99915478227221 0.0 -6.479678945713641 10.482983315607244 0.0
145 1 6.724842254863966 8.943749271426077 0.0 3.971891452029508 -4.859339700023329 0.0
146 2 7.506812591648849 6.756660794370319 0.0 -1.3631915650205064 0.7059961061956319 0.0
147 2 15.397014048675958 3.3279685084584534 0.0 -4.737364262974177 -1.6173648651359365 0.0
148 2 9.313123225205304 3.070531292081211 0.0 2.327099578751107 -6.506300238675824 0.0
149 2 13.453955853952587 2.6267340928053136 0.0 7.853690461492819 5.704772043233323 0.0
150 2 2.631902058521798 14.185061028946151 0.0 -2.280424584638903 -1.157483062500713 0.0
151 2 3.645831136417295 18.734179224513877 0.0 -7.893124455483683 17.85596047506767 0.0
152 1 12.435320821295102 6.806378466061373 0.0 -10.871817052226817 -6.609457736919936 0.0
153 2 3.976905824495416 4.0130886375910135 0.0 9.239176812031609 -5.269842931699087 0.0
154 2 11.55341881829414 6.339500666948468 0.0 -19.592393768916512 -4.605727425515474 0.0
155 1 11.972799533221671 19.539622129550565 0.0 -3.2089091378930865 2.160705509480656 0.0
156 1 13.036010696619929 14.527985021778129 0.0 2.7749709652819066 1.0544764980935746 0.0
157 2 17.85048418026501 16.816124918203954 0.0 -6.131819216892545 13.474880515059048 0.0
158 2 5.825017590757371 8.594772982782834 0.0 6.159628066991779 3.1577856344381288 0.0
159 1 8.963235546069084 19.17176767456909 0.0 -1.9905633415699377 7.593786585889624 0.0
160 1 17.562665930675788 11.597779854152225 0.0 -2.5050585056538943 7.855437768526288 0.0
161 2 0.4846633873243156 7.079669279711686 0.0 -5.782716608042983 -13.937572070994298 0.0
162 1 17.517471187046297 4.000100477415595 0.0 3.8097845131441757 -0.73284362645121 0.0
163 2 7.082806580472807 5.0795102207560126 0.0 -1.621073758214487 -4.19555437402361 0.0
164 1 9.719676341311622 10.09681508822449 0.0 4.754667963711875 -6.6526853591142325 0.0
165 2 11.688223420507272 0.9084233009446084 0.0 -2.2096925322116143 4.361587179940708 0.0
166 1 15.908018024190909 4.807595345583981 0.0 16.026771853804547 -8.508982535543169 0.0
167 2 11.141795418525113 4.844730619982886 0.0 -4.05929041632251 1.3388336276772619 0.0
168 1 1.2434970960620977 3.2881783929654547 0.0 3.8249430324936227 1.2350809680467796 0.0
169 1 13.692832942423923 16.668591275052385 0.0 -0.7783180794278438 -4.8727660223578635 0.0
170 1 10.952386818443976 16.97101957777906 0.0 -10.782204593915473 -11.790410975291024 0.0
171 1 0.20998600895335398 4.092874941731542 0.0 -1.1521548673415936 17.671254600378553 0.0
172 1 18.41835570538665 5.093072133312316 0.0 -6.689809321192183 -0.35511161042270944 0.0
173 2 3.059065437037337 14.91631814606636 0.0 2.422607316029501 3.233802212064004 0.0
174 1 13.320136948653987 14.878704623661266 0.0 3.5772536674306967 5.582734534353856 0.0
175 2 2.8087518645024736 13.064053699743072 0.0 -2.0034708796636593 -1.8310170145200781 0.0
176 2 14.114103720637017 1.2168672619373622 0.0 1.5939735196249232 7.352213378916542 0.0
177 1 12.29157666094117 6.11633090237782 0.0 -4.268623829525826 -8.956834987144845 0.0
178 1 4.191887100260006 13.33533928675511 0.0 -7.1865182648191395 9.8875791386312 0.0
179 2 19.013301033275106 16.60673484545679 0.0 -0.6295258793759505 -1.4653392812637887 0.0
180 2 12.438059587026828 7.793050873099883 0.0 -0.08886219961380083 -5.305833370621152 0.0
181 1 5.01111839672893 10.578547231964333 0.0 1.683246801344922 -18.612714082970456 0.0
182 2 13.25066596267933 6.80000670647486 0.0 6.340776586692053 3.8587679972181133 0.0
183 1 7.86346574207373 12.24675387117937 0.0 2.4997195706586948 9.476074771556704 0.0
184 1 15.823016387132137 13.991110066356795 0.0 6.362935823397606 1.330123303095776 0.0
185 1 11.164501803552017 17.812173812009192 0.0 -14.976004811790846 7.649051494331223 0.0
186 1 3.327523567145247 12.271469396681265 0.0 -2.25635016038749 -2.1473868559024174 0.0
187 1 18.506975017334188 7.14790936064522 0.0 18.122502297129735 -3.8010233544695256 0.0
188 1 4.74803154811752 1.2833449739001956 0.0 -15.514590729839979 12.685737803665523 0.0
189 2 0.10203222999572269 1.9190690209361827 0.0 6.052518225487071 -0.39067406144666667 0.0
190 1 1.4774155004325686 17.69152317361616 0.0 -13.632562311220044 1.7210579052863029 0.0
191 2 7.475402416693337 7.767194364332532 0.0 -2.6184696537320327 -3.5304792817944977 0.0
192 2 1.1330752930735384 8.09882107957515 0.0 5.90309624969868 8.64853643753425 0.0
193 1 7.892999796056142 19.644112322373463 0.0 -11.065225429721878 8.972298906777816 0.0
194 1 16.8494122604972 8.45878344753194 0.0 -3.3244982123034545 -1.2996512739880524 0.0
195 2 6.430325167831997 3.983497007689715 0.0 -4.945227775417657 -5.320301776151448 0.0
196 1 11.331967882078153 19.282781641289954 0.0 0.018653654970861334 -11.648898754094459 0.0
197 1 5.271600540073489 17.06836032184232 0.0 -17.390816514872007 -4.58311794513343 0.0
198 2 18.862436421303382 0.713860556999937 0.0 13.955424065591217 13.876600346553696 0.0
199 2 8.437842651729365 14.278732626733609 0.0 3.960742912837909 -3.428176634674565 0.0
200 1 15.835288424815422 17.16341522311808 0.0 4.921434006535502 -3.7051321173573433 0.0
201 2 12.912795671025872 16.557965981438723 0.0 -0.848650764158642 -6.260310236814124 0.0
202 2 19.433529689028518 2.936018296755101 0.0 -3.0723390262921435 7.634459034288773 0.0
203 2 0.27140183383278427 4.971640184298889 0.0 1.9002290171750833 -4.793335209609478 0.0
204 1 10.118970752038711 18.617991875926265 0.0 18.453545249427872 5.288070685416996 0.0
205 2 8.413124839933953 0.5583586673395563 0.0 -4.789213569877393 -8.903701392138517 0.0
206 1 1.6818944039001513 6.079472932579639 0.0 4.272506974834877 1.6622969468542945 0.0
207 1 17.9336719059845 4.1810317401960155 0.0 -14.172355708336717 -5.2600214315614915 0.0
208 2 5.529728145753801 6.042754195603001 0.0 -3.4950233020013908 3.472962740028414 0.0
209 1 6.248492457523579 16.41025628548847 0.0 -0.7770040983991002 11.63492422845668 0.0
210 1 1.3681152830672372 13.479456005783229 0.0 -2.2794841139406556 -0.10016306486600567 0.0
211 1 9.842908537946583 10.941178123668076 0.0 6.660951625221519 -8.230083289463428 0.0
212 1 14.504659296365597 7.500366216319252 0.0 -0.5719724341511694 -3.1862715373613706 0.0
213 2 10.031667943136842 8.657022419045711 0.0 2.2148733905902414 -11.048118602238642 0.0
214 1 12.53341660277171 15.761656235657563 0.0 -7.5769347992595 -5.795273072883367 0.0
215 1 6.504985773379115 17.504494074033296 0.0 2.4110772438943817 9.940496445397063 0.0
216 1 14.986271442402012 11.833496127047384 0.0 3.819838927802272 5.3628921454015535 0.0
217 1 0.03711217526396245 15.503064159611277 0.0 -3.8261166643201623 6.709828154155955 0.0
218 1 2.1759451998293544 4.467437825041829 0.0 -1.1967850689066135 -0.9036824006360312 0.0
219 1 15.705727368531205 0.07668390347151734 0.0 6.4030962055913925 7.237083912656629 0.0
220 1 3.5682415481633543 7.463963519103699 0.0 13.751589584181403 10.196500129608898 0.0
221 2 6.9738210926286985 1.1189815954913185 0.0 -0.30288605553803954 0.3816674940643803 0.0
222 2 14.24128072643985 13.545277151246845 0.0 6.4269984368759205 2.011739420258664 0.0
223 1 17.473266594316062 7.52824705256124 0.0 7.183843815529614 -2.629850385877323 0.0
224 1 1.8266965815868372 12.54425875411505 0.0 17.827285596434134 5.747893930179298 0.0
225 1 17.903167912345026 1.3089393927617625 0.0 -2.6426131113850193 -4.508276689968762 0.0
226 1 16.246008386445325 3.5308316223589795 0.0 -12.292092346577249 -16.84910045733524 0.0
227 1 14.00600000673212 2.054440496555434 0.0 -9.387486749761004 -0.7820260870152587 0.0
228 1 1.051759707169495 17.61468405729065 0.0 11.086500568653367 -2.7987343045351927 0.0
229 2 4.232008319507234 19.46363428015062 0.0 0.26575462440524433 7.849337503134513 0.0
230 1 16.766694545224077 7.428313186323661 0.0 -10.705651888688955 7.368592430212271 0.0
231 1 13.210226422199076 15.72524540757708 0.0 -8.372246478066995 -15.320207336595073 0.0
232 2 7.649864790772746 3.0754481546209287 0.0 4.073998793290552 4.496158856090055 0.0
233 2 12.448734352731268 8.836335747545883 0.0 -2.9551430117900805 -10.65330811240799 0.0
234 1 4.810265366474237 17.257314668699546 0.0 -2.9176024748498572 -2.24622137686343 0.0
235 1 7.420298325755543 13.568978723660262 0.0 9.392056571462037 -15.721377190282883 0.0
236 1 14.14246690727841 8.20819652155882 0.0 -0.13587552783648862 -9.133748835377482 0.0
237 2 11.339515606244987 14.885924654011369 0.0 -8.77485791602866 -0.35258113098359617 0.0
238 2 0.9496331248576886 1.311020831627299 0.0 5.285680556931429 -2.8609100572149027 0.0
239 1 10.497672133466263 14.87183337005429 0.0 -3.3946916599109045 3.27372752202081 0.0
240 1 17.143887721336146 2.033073889733343 0.0 9.358269385785208 -1.2852861401038262 0.0
241 1 13.175687823107696 1.2719891637589589 0.0 5.443162684235995 -7.894370866416339 0.0
242 2 19.40229942159194 11.172611016322733 0.0 -0.4331692614668296 1.861223993234973 0.0
243 1 12.225401199216964 19.131914512643785 0.0 -0.6530485115488514 -4.017938378320704 0.0
244 2 13.705343013784512 8.94580863346954 0.0 9.140663469590063 7.232129698625073 0.0
245 2 13.61755708929179 11.07739049388087 0.0 -8.865231867005761 1.454089058179592 0.0
246 2 1.8267712965341358 14.628635723396265 0.0 -6.695036116663228 -6.61518677654157 0.0
247 1 7.610849513169639 18.43281371343338 0.0 -4.580730392266034 4.185166192557166 0.0
248 2 17.263374934781343 14.453324927071145 0.0 -3.4319853890308236 -15.26889592234062 0.0
249 2 9.644992575450198 0.05068509187389991 0.0 -7.871129732285418 -5.570919847159719 0.0
250 2 6.347686872696925 12.146593321078555 0.0 0.7319038784948917 -3.8962733958713165 0.0
251 1 4.557792494270608 2.961939216825546 0.0 -2.8226534127200194 2.293572227384656 0.0
252 2 5.442908475355828 6.965158624410999 0.0 5.076743176076105 1.9610901615599123 0.0
253 1 5.01331887964131 12.539489845437156 0.0 13.644608158834194 -12.290019419244192 0.0
254 1 19.373403448200847 9.540268584382527 0.0 2.340186388642304 5.598011832780419 0.0
255 1 15.441004175648827 15.93829495168661 0.0 -10.238451480839542 -1.0146348426200658 0.0
256 2 11.852344082811129 10.330644103641903 0.0 -5.634779142932533 -3.806084413756271 0.0
257 1 16.575233156007258 11.875600435910473 0.0 -15.710299402854545 -3.3121293117243407 0.0
258 2 17.71913218396595 13.181563668078548 0.0 1.0068004505126418 10.75059029516956 0.0
259 2 4.662460855921042 9.004999840326674 0.0 -12.08430260608755 -0.4496103267617106 0.0
260 2 12.57889962228816 12.674602275079122 0.0 5.102077108588748 6.853059944379864 0.0
261 2 5.114246031788765 14.323547489309771 0.0 2.091966841824602 2.2960075587726254 0.0
262 1 5.2394932935348395 18.400421637094443 0.0 -11.321538183109993 2.4888989749734978 0.0
263 2 14.171279102326015 11.997172988934482 0.0 -6.012590918187627 9.245670223486039 0.0
264 2 14.85400540730411 17.355243036699726 0.0 4.036989706173584 20.539076185117327 0.0
265 1 4.095771470610347 2.9938491149275936 0.0 11.13970637104699 -16.6035777113323 0.0
266 2 10.081910150081596 16.10252791412437 0.0 10.695901541763089 -6.588479926136598 0.0
267 2 10.890964161972661 10.961951974429004 0.0 -0.40121428196150305 1.3955605418431083 0.0
268 1 15.810935084270989 9.812611174728502 0.0 -7.433670684944264 7.311660461066817 0.0
269 2 4.060697856472973 14.319560542433642 0.0 -12.24083960560838 0.5945085803999565 0.0
270 2 16.906720074788222 19.230687322486308 0.0 5.304585344417307 -5.332731911575874 0.0
271 2 8.480359767653308 1.7486288845400715 0.0 4.9466908461284635 -4.087351705641386 0.0
272 1 13.535709506424967 19.183188140748662 0.0 5.18078826797764 -15.402134235308399 0.0
273 2 7.344630125125051 9.465746754581922 0.0 17.723415590472353 -7.176487919363252 0.0
274 2 0.7595360467445954 9.047244845022338 0.0 1.61095167022443 5.276032059480928 0.0
275 1 16.19499777293681 13.608212686339204 0.0 7.569896825152523 -17.20270260147212 0.0
276 1 18.05572740584986 8.648933447035304 0.0 5.188059495553354 1.3490365432141442 0.0
277 1 16.907931214888176 2.723854995693438 0.0 -3.307809744061561 12.193206522538922 0.0
278 2 7.045798014159192 0.06087108283369509 0.0 -3.4925166073508227 15.673408772148264 0.0
279 1 10.837310706177803 9.629425193969796 0.0 -5.913923056091855 15.475993180060742 0.0
280 2 18.58727515198008 12.788608384498236 0.0 -3.939506267354891 -0.5619431204366206 0.0
281 2 16.780771314261226 18.297085753256503 0.0 10.920568817031905 0.42300973231832617 0.0
282 1 12.872697073729244 13.647761551793378 0.0 13.760284296828154 -3.4099189238513667 0.0
283 2 9.659067751461693 1.947319309934233 0.0 6.3571490128826715 -6.663384751161297 0.0
284 2 6.6241365885293 6.808194317876248 0.0 -15.376453628108216 3.519280572206821 0.0
285 2 4.26315995851419 5.226233940996631 0.0 -2.277779262144956 4.913963802015852 0.0
286 2 5.439937158356401 4.7023123592636225 0.0 -7.651933604229068 0.31166102281201663 0.0
287 1 6.279826609392039 13.135076038845966 0.0 10.979594332228626 2.441125162730448 0.0
288 1 17.64758880188315 8.998395793095177 0.0 2.6182302276919547 8.022459610644836 0.0
289 1 5.17259466493825 19.239720647682056 0.0 12.95857908910854 -2.3461602440997376 0.0
290 1 19.093211407477067 4.384953188987405 0.0 7.687423713225226 5.375758717144922 0.0
291 1 17.94611480214092 1.8389166091869902 0.0 1.9575780232024733 -7.449481543571104 0.0
292 2 14.704747096282128 18.574501166582053 0.0 7.476072940636303 1.360338420117977 0.0
293 1 12.798733440702994 1.8115242317169131 0.0 -0.9185102928768651 5.50321323468791 0.0
294 1 13.258098148110594 8.189872544638021 0.0 2.7492717671941156 -2.5151829348883377 0.0
295 1 16.756908809192296 11.169561337382211 0.0 -7.120608410319835 -2.3729811400501677 0.0
296 1 10.656456879078233 6.601485423944236 0.0 1.4381812241591023 -6.200328047412186 0.0
297 1 5.167215472347611 16.570935024380482 0.0 -11.990219094410026 -8.795438603082319 0.0
298 1 1.1942149508438662 11.978241467245848 0.0 -6.546284305345848 -4.162251786270699 0.0
299 2 6.088686007006922 3.0934415264227786 0.0 0.5120449453811504 -2.728170511129487 0.0
300 2 0.3964600826018346 18.246348667307227 0.0 7.1137782686150555 -0.3970576475148631 0.0
301 2 0.07549016987133142 17.088298540334346 0.0 4.197738892022316 -1.4366376653190442 0.0
302 2 8.87102420822586 11.165567294984966 0.0 -7.9285101617171225 6.935202285157882 0.0
303 2 15.218112416886118 5.708582263285379 0.0 0.8958525723061305 -4.7649377523762455 0.0
304 2 1.0527612959987835 6.444785029398608 0.0 7.822897163577718 -4.286473373507416 0.0
305 2 12.448157306138512 3.197733538683955 0.0 2.1304587738987206 -0.7010790827956447 0.0
306 2 2.08463148960102 19.223785841850788 0.0 7.1078660597010135 -3.3232190693201358 0.0
307 2 6.581818575623306 8.091422826270675 0.0 3.5517626745965 -0.157784381704573 0.0
308 1 16.89509905086028 13.607271236326213 0.0 -2.8730504822853584 1.5016826484917132 0.0
309 2 1.9148611857253661 5.370533871201656 0.0 -11.202309346694522 -10.888070187703104 0.0
310 1 2.447193356502497 7.333793469827697 0.0 -3.0082037819343532 2.8875429874778944 0.0
311 2 7.395345876003265 10.364013916352766 0.0 -6.5007941133965135 1.4248963676988853 0.0
312 1 11.540481441416977 17.10687947736673 0.0 -1.9328176552975607 4.082061284277889 0.0
313 1 2.4069002880662804 15.473395183472478 0.0 9.87059279536691 -10.420326909041826 0.0
314 2 9.582338887552696 16.88623905427554 0.0 -5.299718440199312 -1.0419799333147604 0.0
315 2 2.23958496236691 17.983174717055313 0.0 -0.9959753636700613 15.303771104862486 0.0
316 1 11.666139274230256 13.903087646778475 0.0 3.7619617538323222 0.7203340764579296 0.0
317 2 13.918795121994103 5.0156630240196005 0.0 5.670065278901634 10.624305768031666 0.0
318 2 19.205008515287677 5.348431305566855 0.0 12.0832780269912 16.07811524259631 0.0
319 1 3.075005509102353 4.226679127620867 0.0 -8.39358284378166 -11.09120862198227 0.0
320 2 13.47595347132913 10.027720831311695 0.0 7.236210166252373 -5.667130065830923 0.0
321 1 16.170822405592745 5.53893328856987 0.0 14.769380831726247 -15.139650631341432 0.0
322 1 9.055423064877953 8.611551572841032 0.0 4.259342600110648 -10.742840954998247 0.0
323 1 6.944772927223296 5.8844524468858035 0.0 2.771085561370414 -5.829510475651588 0.0
324 2 10.17327768887265 17.649947111437566 0.0 0.6420229874341883 -0.16002513665615326 0.0
325 1 13.989448989801451 17.276168302397497 0.0 -15.394452410520564 2.1624319748175482 0.0
326 1 17.680295174405938 3.565663064577309 0.0 -1.3256877132230251 -2.445919277282558 0.0
327 2 13.648989469667034 3.74695775124452 0.0 -4.379097280294815 -1.3395810817711358 0.0
328 1 16.990886589103944 7.968134109263533 0.0 2.9099163196013644 6.733461681482758 0.0
329 1 0.29564292633353706 16.118091751448357 0.0 4.418650002307875 -13.370749038630784 0.0
330 2 1.3586498008211516 7.220046158823896 0.0 7.785039363340647 -3.8872321733828676 0.0
331 2 17.473339869742357 10.1837194821214 0.0 1.003601572750835 -1.5609178251525142 0.0
332 2 7.103895945948836 11.216098901321699 0.0 4.018988012507078 6.124783741130428 0.0
333 1 15.157324597033785 13.839684824627877 0.0 -19.88091866646841 -2.78282257914242 0.0
334 1 5.61961080855335 2.4301314272547896 0.0 -3.634799530854821 -5.14977177992286 0.0
335 1 3.4282709013036166 9.456291359185725 0.0 -1.4292626060146199 -0.6372279356979264 0.0
336 1 19.6264573236239 1.1097050108865223 0.0 -9.656680566642137 1.6679665440715512 0.0