ITEM: TIMESTEP
0
ITEM: NUMBER OF ATOMS
400
ITEM: BOX BOUNDS xy xz yz pp pp pp
0.0 19.7609 0.0
0.0 19.7609 0.0
0.0 10.0 0.0
ITEM: ATOMS id type x y z vx vy vz
1 1 3.4596872427806677 5.7837305747215995 0.0 11.62674992740849 -5.344828370093003 0.0
2 2 6.108232788835734 5.031411160899561 0.0 3.361184601766334 2.0985185141023925 0.0
3 1 6.453921113803665 8.260863127062844 0.0 4.104796243818448 -5.9872256517837075 0.0
4 1 13.267168529655295 19.462286430170302 0.0 10.554725203273392 4.840736823682932 0.0
5 1 8.810496023767833 5.707779137367603 0.0 3.1334376540754816 -0.7212273535917976 0.0
6 2 12.136113685851447 17.860579931163137 0.0 9.949165271166544 5.603761624595663 0.0
7 2 12.625920792704541 1.5645864872794908 0.0 -7.448252815425111 -1.127758895901822 0.0
8 1 17.544520301266513 12.910357056812998 0.0 2.190820083705988 -1.3105901389683061 0.0
9 2 14.917776519682523 2.8426466188186885 0.0 -6.243183482307504 -10.445550176293006 0.0
10 1 19.5418576461337 12.537392966352611 0.0 3.1172779133438664 10.084374465487222 0.0
11 2 14.493569991301184 3.7475980873558363 0.0 -5.560208834376948 -5.110442599589507 0.0
12 1 7.986554902671268 14.501555744374715 0.0 -5.559670328585635 3.777349147723649 0.0
13 2 14.566129736295062 9.353278703747685 0.0 -8.233523020457353 -5.356871078067814 0.0
14 2 1.386760217104659 6.31980753078223 0.0 -2.712173757576139 -4.787303462610168 0.0
15 2 0.33567259999928023 10.55556211036151 0.0 9.396308728850144 2.4389460793043236 0.0
16 1 1.1586496035963816 14.094108530616385 0.0 1.046023531767953 -14.902742262098924 0.0
17 1 13.530513460302695 9.337425429547023 0.0 -8.998259098113348 12.796345014687093 0.0
18 2 14.075796489981908 0.9909966403819312 0.0 -1.9728608780324828 -12.698964638721257 0.0
19 1 10.3108284224982 12.170385256527828 0.0 -8.053406128495343 12.197006069757578 0.0
20 1 3.040764657204971 19.407512054535562 0.0 11.58791380490159 -9.151547839844433 0.0
21 1 0.26180508799848984 15.161187962574168 0.0 -1.8054191193926024 10.043172248945888 0.0
22 2 9.534906165409167 11.214288075310872 0.0 8.882450539601008 -4.459200643615184 0.0
23 1 18.89297354074532 12.451815763003733 0.0 16.492982447926764 1.5928142570374093 0.0
24 1 11.742930170344511 3.281670404900351 0.0 -0.3805708160456065 -16.876140297034823 0.0
25 1 0.5699766423885391 6.344540108881787 0.0 0.49558641825372934 -1.3685408792150013 0.0
26 1 3.6395834291019296 10.217280555112005 0.0 7.279439933990955 -6.652664833231899 0.0
27 1 4.327255409199322 19.433037212734053 0.0 7.1575113982515015 6.363053353723528 0.0
28 1 17.46515186987106 16.045596588701972 0.0 5.6758158525315 13.249077385661167 0.0
29 2 15.197146371360283 12.845807655819987 0.0 -9.847622205501716 8.434906220513218 0.0
30 1 17.523944365986498 18.67707610804139 0.0 4.5806425460841975 4.068393966961386 0.0
31 1 2.5546241257795534 0.8633046466310739 0.0 1.0588195048125097 2.8703004415408833 0.0
32 2 16.96864326140956 15.241828794552603 0.0 0.5398613487675077 -0.10600171417692873 0.0
33 1 7.5566606036351525 19.515552289263663 0.0 8.609896174600694 -7.616898864136472 0.0
34 1 5.596137588076211 8.644829516791297 0.0 4.991202555937411 0.7405398562040081 0.0
35 1 0.767033523739406 17.49793528754629 0.0 -2.239852554417493 -8.269862087618966 0.0
36 2 15.664094710761743 0.3081015398865294 0.0 3.4540173868989723 11.463206067740906 0.0
37 1 7.413257470263062 16.818365608571764 0.0 4.254326992477247 -13.284251753946894 0.0
38 2 11.123829289157209 15.453630708312401 0.0 -0.4288118263615258 2.657581244374215 0.0
39 2 10.681861441126053 1.685556772660943 0.0 5.667779047939963 4.247816158893833 0.0
40 1 18.99932230247344 3.427781952279731 0.0 5.359667437610826 10.17466900302038 0.0
41 2 13.132765521764489 7.125372835392585 0.0 1.1765234332282488 -2.824126545826651 0.0
42 1 14.771684335751807 0.6409906292713458 0.0 -1.841563250023413 -12.451654718172211 0.0
43 1 0.5144799675751415 3.92476357467941 0.0 9.599464918579102 -3.8464691244253277 0.0
44 2 18.252650193860543 5.400756263271788 0.0 -0.49582668704252647 13.873914674555538 0.0
45 1 19.272005569684953 15.668054775701751 0.0 -6.6954117945736815 -8.607541719547253 0.0
46 1 0.23469113837414032 8.832475270479035 0.0 -17.576269467583305 -9.770878822748912 0.0
47 2 18.936776152292115 9.65930282298755 0.0 -9.411082814771172 -4.157850534663316 0.0
48 2 14.924464437074151 6.732749174527329 0.0 3.573957410021212 -7.694962501341694 0.0
49 1 13.450121867128203 8.30987118079188 0.0 0.095591298991327 1.3132462912535787 0.0
50 2 10.51704999606415 10.883802759549784 0.0 1.9786007868063564 1.0126375524002769 0.0
51 1 7.481528789377997 11.610052640148588 0.0 5.843693793281142 -14.343875581216242 0.0
52 2 2.7257133583077353 6.428495063761291 0.0 -11.015104874309667 -9.291838583024514 0.0
53 2 7.645848797192428 1.2866733263107888 0.0 11.343460555665564 -1.0805400751034093 0.0
54 1 15.67342169134871 14.984439183584845 0.0 1.143347317164439 -5.263521393656329 0.0
55 1 2.901142371566324 2.0085007307192564 0.0 -4.682853968287263 7.532356759371119 0.0
56 1 1.0918688401275929 19.26551043780883 0.0 -3.3408679375112977 7.964213535676239 0.0
57 1 12.464716726518878 3.7922384675037213 0.0 -2.5647180844722803 3.572410873379003 0.0
58 2 8.450468148202974 1.339588638112481 0.0 9.706248273409656 -0.6333529387592786 0.0
59 2 6.853522520940748 0.8862893548143174 0.0 -7.665595161818769 2.991898240065296 0.0
60 1 16.753823862799685 16.275322388459138 0.0 11.04238991067617 5.755361138714291 0.0
61 2 2.626668270657083 16.309618172972723 0.0 -3.507320423932418 -11.243893162925488 0.0
62 1 17.988866144774505 13.55760463855215 0.0 -7.0036697935431205 -2.250529403475154 0.0
63 1 16.117249430961216 14.086908708429421 0.0 4.332175393198292 -6.6624892768814306 0.0
64 2 14.755121429845566 1.9621821918615334 0.0 8.388019707231376 -7.601541586993282 0.0
65 1 15.166080419925615 15.6969705468228 0.0 2.5826726813552994 13.388595064308443 0.0
66 2 9.054316451283064 13.918588905540176 0.0 -0.5997589259487381 -7.25376364153673 0.0
67 1 6.557780932172475 5.968914924002137 0.0 -5.879102126740975 -14.653734416870227 0.0
68 2 9.505307168941169 10.304414958467033 0.0 -0.3728612995856068 -3.3126116940836647 0.0
69 2 12.54918826584896 2.596934898763552 0.0 -2.253687952536345 8.049328205012483 0.0
70 1 10.601748132754002 0.9185958812136541 0.0 5.614837838069013 1.4070343415381037 0.0
71 1 14.590155012654115 17.57392358887303 0.0 6.232529424228587 10.395550113150852 0.0
72 1 13.208685588404599 4.7884787540853955 0.0 2.656367480001134 1.485373032850667 0.0
73 1 10.798474424953586 14.631244792418423 0.0 3.3247533808908547 5.019688741581774 0.0
74 1 3.822708185542171 19.031212790244453 0.0 -8.721625937362344 -6.850853719428798 0.0
75 2 6.620349954195525 9.383134891537347 0.0 4.501881037006983 3.8995186234586816 0.0
76 1 14.049529141707296 15.28964792659056 0.0 -1.1868528428029235 12.137418189440165 0.0
77 1 3.4019102221981896 6.863361916310126 0.0 -8.878233258412328 4.64763763921853 0.0
78 2 4.283065769971586 6.075597205438188 0.0 -3.5466721339483156 -1.5446443467881648 0.0
79 1 9.235534187875198 19.738181716762647 0.0 10.899527234588142 -3.956982313247525 0.0
80 2 9.826057697375033 15.879793190088455 0.0 2.0925951516027084 2.7632442648030198 0.0
81 1 6.0043902394912525 2.7484468387472423 0.0 0.17736113377991605 9.689903762279677 0.0
82 2 6.645667302220034 13.558930470117357 0.0 7.718780917899197 -3.4540979014517945 0.0
83 1 13.749852325573633 0.2728439561694388 0.0 3.1949052895450305 -1.0057071188522293 0.0
84 2 10.952899342609422 2.68462699811858 0.0 -1.6197674317449877 1.6388647171520765 0.0
85 1 16.296330045738856 10.139479568658906 0.0 -1.3422453929487306 -3.4996533680755366 0.0
86 1 9.481458989091347 5.997713360827338 0.0 4.590418570860725 5.601721955560635 0.0
87 1 3.3797421471237628 12.815767479670019 0.0 -4.1846552235335555 9.276711362959224 0.0
88 2 11.041364084276982 7.213974991452276 0.0 -3.3872830465361896 14.22708052672618 0.0
89 1 13.993285903608825 11.555973577880062 0.0 -7.374295204814982 -4.8993495324664105 0.0
90 2 1.9446995461024776 11.698387984097671 0.0 12.10124433535741 -6.357003853171602 0.0
91 2 15.858769442894719 6.265857107905459 0.0 2.760294265098176 -6.594207733802362 0.0
92 1 11.659439035537973 0.34925204141190175 0.0 5.528843942398447 0.7044524327616568 0.0
93 1 1.5185995470483045 17.799902745298198 0.0 5.099687703020332 3.418591159271548 0.0
94 1 14.002214609298775 3.109389339508258 0.0 -2.2768768664013446 -4.437727834211288 0.0
95 2 15.311578541829682 13.707726680869289 0.0 -6.6717692791396495 -1.6189174006150273 0.0
96 2 8.894328994638391 15.919407179055716 0.0 -1.269128839265877 -1.4081369142863958 0.0
97 1 8.610094560292467 6.661020375050893 0.0 9.715625216604874 -10.605081080739014 0.0
98 2 8.603075114252022 11.208755166532612 0.0 14.109408409853598 1.1679030734206708 0.0
99 1 18.553225924650015 4.011239359684144 0.0 -0.13960701524079605 20.704756189246066 0.0
100 1 7.464262599731921 13.840905052437337 0.0 -14.833635425324546 -2.7678432472730887 0.0
101 1 2.4905592523651072 2.6434347610452984 0.0 17.47921305137516 3.6611228690297812 0.0
102 1 8.571624544822253 17.849540178108526 0.0 -9.887378081505423 -11.089374684687632 0.0
103 1 18.281604673360032 6.367129844090848 0.0 10.397944804174852 0.6644635355004105 0.0
104 2 16.616940256217998 11.43490561925855 0.0 -2.5315672228463284 1.7859111969732135 0.0
105 1 16.56473268908201 18.805179399042782 0.0 7.734581510752753 -8.474180102755405 0.0
106 1 17.064507616722743 4.84009648020169 0.0 0.1719073462187387 -5.224158918850064 0.0
107 1 13.187690215847606 11.062319542672782 0.0 2.9022310719927122 9.574821255639817 0.0
108 2 2.860922332231081 3.2817344534218864 0.0 4.568901716177147 -1.9124251262883698 0.0
109 1 7.518368902196847 0.2737189910387534 0.0 8.150227368207048 6.650408466645834 0.0
110 2 9.619273747409466 0.8517772424567149 0.0 1.5504535289063235 -1.7471256161523085 0.0
111 1 1.7720094796271557 1.9695812544371314 0.0 -11.95709336036154 1.5452039994862985 0.0
112 1 11.05180952584099 0.5067979759470007 0.0 -4.310135473954588 -16.250851994159945 0.0
113 1 18.831251926260535 17.198087405681154 0.0 3.2548726489721838 1.7899861420271048 0.0
114 1 10.534550826588582 6.179885188421829 0.0 19.320832252806742 -9.460795049116793 0.0
115 1 18.11728420065361 0.5657105027383449 0.0 -6.197210314204501 -12.607205174445456 0.0
116 2 10.100024617179866 17.00741374691596 0.0 6.115247951846449 -2.0638316860092147 0.0
117 2 8.819183516511558 2.5193816065928547 0.0 1.755371941145524 1.4438315388386576 0.0
118 1 6.652910138153689 17.435508659745228 0.0 -14.521868048010294 3.2430214921005915 0.0
119 1 4.8187896398859795 8.443847543259384 0.0 1.3408815896112578 5.664537384611572 0.0
120 2 15.092022051439178 16.775131254602382 0.0 4.1520732565691025 -5.711461170455188 0.0
121 2 17.129159163765852 7.1962806679113225 0.0 0.2859419884631255 9.647191800430848 0.0
122 1 12.34260361576472 10.601636740989795 0.0 13.397914388737837 2.287015900379555 0.0
123 2 14.669020877261467 19.63374998467851 0.0 15.959812970977802 1.9254764633636015 0.0
124 2 3.1066756206089536 15.465589838537706 0.0 0.9586325239519448 -4.710615073884774 0.0
125 2 14.653451227738701 7.675358392264723 0.0 -4.59453780279377 5.424398376394051 0.0
126 2 2.0869092718375746 7.1616406009968046 0.0 -5.957736618995045 -10.337939965588584 0.0
127 2 17.085049532186424 8.889316417809072 0.0 3.279125655789773 0.6649661994272966 0.0
128 2 17.028664866786972 14.078410241758547 0.0 4.676467725996498 7.710536680985394 0.0
129 2 19.410593009017 2.8306331005416854 0.0 -8.64979720783725 -3.992307435142602 0.0
130 1 5.077486713382785 19.556047787419775 0.0 -9.321784084050888 2.5381452558306963 0.0
131 1 1.8625284465115204 8.0541218005871 0.0 6.994092290221212 -7.781362215338718 0.0
132 1 5.437031842153884 11.82944647316487 0.0 -4.339349570587853 -2.14907760923428 0.0
133 2 0.7830035042180599 18.29133002280038 0.0 4.9187782898187224 0.33667026013987444 0.0
134 2 12.547990285958061 14.013920508816863 0.0 0.8664680526043391 5.696045633531653 0.0
135 2 4.824347390852749 5.2800746544809485 0.0 7.738324343921122 7.572617055910979 0.0
136 1 14.202190678195963 5.505093627875174 0.0 3.8198151645112386 8.764177712361088 0.0
137 2 12.376662592804353 6.497926493170328 0.0 -2.585582599385612 -4.593397342922269 0.0
138 1 9.132955483955886 8.777644207769226 0.0 -6.530472038726196 0.4638127674363415 0.0
139 1 4.410761513086509 10.084338570566162 0.0 5.787940438329532 21.57386252969471 0.0
140 2 3.020114998689786 5.095313458399963 0.0 6.387532936893147 2.112522189458246 0.0
141 2 11.423369300213563 10.753309754379421 0.0 1.3355926469189663 9.913683118523926 0.0
142 2 12.011179348329868 16.10938526024343 0.0 -2.404938866847862 -1.2037944122234319 0.0
143 1 8.251119920901514 17.214763600506892 0.0 -5.276870028455454 -0.3603042219927354 0.0
144 1 9.265730440583555 8.254497226260954 0.0 -1.728207873402355 0.40622360778270367 0.0
145 1 0.22927271212006306 5.904856245613596 0.0 -2.1408405458915936 8.66511305535676 0.0
146 2 4.725125810003615 4.0302572201056925 0.0 -3.7937671624956466 5.054132240373381 0.0
147 2 18.956587619547367 4.767592415932292 0.0 3.777394769538749 5.573985954769786 0.0
148 2 1.3789333872930647 4.605408811359579 0.0 5.3018612886410335 -12.363435830540787 0.0
149 2 5.064084502080716 6.899012108802712 0.0 2.8199261266228612 -0.6846285425696308 0.0
150 2 5.145588250866229 16.7571585322401 0.0 -3.690330855579365 3.2118143530225107 0.0
151 2 9.941797122067463 14.5275329190502 0.0 -3.1176023690210957 11.769981966354841 0.0
152 1 7.005859732104837 17.879172811685134 0.0 -0.5291728838580445 -10.204303391750663 0.0
153 2 10.209188312136448 8.552303928145268 0.0 -0.5489526828743296 0.7434769398360408 0.0
154 2 13.153411342597773 11.991300968401175 0.0 -0.8086803909183548 -4.210668052365784 0.0
155 1 2.6739344369516913 7.625147058797836 0.0 7.02198942448141 -6.815150671396301 0.0
156 1 0.0896478555151499 14.04372798099773 0.0 -15.270006487133802 4.415109548206734 0.0
157 2 18.608302308039697 16.339508442426613 0.0 -5.859953165837633 6.14515800244536 0.0
158 2 15.895851627041795 3.560580718146431 0.0 3.856916431585904 -2.95814075596962 0.0
159 1 16.039638617836033 16.283024981974577 0.0 -15.214218706696194 11.297855875087434 0.0
160 1 0.6861080009719924 13.660636650335423 0.0 -5.288361419327409 -0.7777892610933106 0.0
161 2 18.11042098791584 2.850247871684958 0.0 1.548049008229143 -14.264246886080539 0.0
162 1 2.309946358166467 0.4700584995913646 0.0 2.9774285821677804 4.310210225920274 0.0
163 2 18.94977147080002 10.809043361897334 0.0 -3.149846327716059 -3.8908901144551415 0.0
164 1 12.90079785076708 4.365271651105828 0.0 -7.585389041181335 -0.7957994719099704 0.0
165 2 10.301651755271148 3.631078652112693 0.0 4.805095937017871 0.6563955250718383 0.0
166 1 4.7445135990769876 15.764703320732359 0.0 1.9029161169629156 -2.32820190356795 0.0
167 2 1.0188737060259605 12.121937887882188 0.0 -0.2343967866646022 -1.5593440860729255 0.0
168 1 0.041959273965048415 9.353998784958597 0.0 6.891468129574619 -4.809547624064629 0.0
169 1 18.978017520619687 11.543631838158355 0.0 -1.1121927530983802 5.516570227359521 0.0
170 1 6.1327676733900045 1.4038619099324465 0.0 -25.321360513482194 3.756907013721197 0.0
171 1 7.15272417743991 16.040589040421256 0.0 6.1690855432763945 6.5047591368825355 0.0
172 1 18.469953919423038 7.335980650793177 0.0 5.700604420273927 -14.122382255507043 0.0
173 2 11.902667091661527 7.427036369485288 0.0 -8.200384542782862 -5.087659763393918 0.0
174 1 12.714163416151457 0.7489137677292289 0.0 15.845814146421109 13.742055484077284 0.0
175 2 8.212010822347471 8.470480147867434 0.0 -8.047162894182842 -4.144022262802696 0.0
176 2 8.736750225849063 14.992128164841732 0.0 5.865123543404097 -6.608581854931545 0.0
177 1 11.191910366316108 18.776137028448588 0.0 -4.436720525277326 -0.6334360439936891 0.0
178 1 19.073244311856314 6.165888635530554 0.0 -16.250755171149304 -3.398231009660354 0.0
179 2 8.431869326063321 19.04730077650029 0.0 8.400460599462736 -13.99422976463579 0.0
180 2 5.630613064988318 15.569536405282719 0.0 15.3609768083837 2.951678254355717 0.0
181 1 19.735916044748734 14.64221017924055 0.0 21.67382074116694 -1.5601395797591777 0.0
182 2 8.117853620674683 12.256463082812276 0.0 5.183665901869615 -6.191692514378875 0.0
183 1 13.759608570245609 3.6377527109314776 0.0 -1.354726615919365 -19.67871472433734 0.0
184 1 19.457406708148152 1.4013770086478003 0.0 -20.00650760262507 5.164638665561423 0.0
185 1 11.380263793069421 5.229697936861331 0.0 7.955829768210894 12.866156548652835 0.0
186 1 16.92812291048162 18.179359319708134 0.0 1.4117739489510945 -8.266283683487009 0.0
187 1 1.7207721616572227 16.365733490657156 0.0 -1.9496481175679732 4.040310160853936 0.0
188 1 16.23778199138488 4.356691952423032 0.0 7.310076361083692 -8.51327455397 0.0
189 2 7.877547873349886 2.1726708148624296 0.0 3.0385447672426413 -4.722621476748831 0.0
190 1 17.043358921044113 6.091487752166337 0.0 5.129534319594332 4.643756521113174 0.0
191 2 12.698076972328371 18.672277905483476 0.0 -18.01992839935154 3.66312471732791 0.0
192 2 12.5529572235368 5.320629563496757 0.0 1.579898586338032 -1.466703055916986 0.0
193 1 3.81422044324512 15.161386618054957 0.0 3.4204516146978974 17.46819109087266 0.0
194 1 13.3577445761528 14.991363968329145 0.0 -7.673586228333275 -3.366248005625327 0.0
195 2 10.78541899004693 18.08373750325372 0.0 -2.9418224099365293 0.010585162351913584 0.0
196 1 7.485998650569067 17.41871877512568 0.0 4.292111988426546 14.932093525301454 0.0
197 1 3.8971975169679496 5.159927259444698 0.0 -5.285361609000661 -6.986715711419971 0.0
198 2 9.631982741535888 13.261600209385545 0.0 1.6609059777839965 11.696080932848385 0.0
199 2 3.5193528627776267 4.218207679411999 0.0 -10.540270019905496 11.745759258563687 0.0
200 1 14.78848945695897 4.926252460179863 0.0 10.849707252035735 -0.00791153363881808 0.0
201 2 13.556377398195483 2.1344669064351978 0.0 8.213995077679439 6.643613912357044 0.0
202 2 9.64948999900115 4.489180430557404 0.0 12.746244876054963 7.885813388438374 0.0
203 2 5.982498358235687 10.964791270462936 0.0 -5.515692035778301 10.572163465473983 0.0
204 1 2.844383644720741 13.032456972494332 0.0 -7.456840234913875 15.173660554803737 0.0
205 2 12.989935229247994 15.72550685404662 0.0 7.8005578141794745 -7.78623794449409 0.0
206 1 8.89266255457577 3.642863363671551 0.0 -5.525019226216139 -0.8381511624429042 0.0
207 1 2.4321476724950464 19.68998917022931 0.0 1.8454045642205983 -15.783753101360505 0.0
208 2 3.4112227083675837 8.635079087736944 0.0 -4.091156878580888 3.8725788987557364 0.0
209 1 11.982669124715061 19.024688738094934 0.0 -3.1039454935048703 -6.238322385034091 0.0
210 1 3.7964137119925745 9.71227282428022 0.0 -5.412835588978719 -1.9377732091535924 0.0
211 1 15.068631341044608 18.49866158901209 0.0 5.5562059921833225 19.527353668268468 0.0
212 1 1.4307849680162508 0.0006971138643883535 0.0 -2.395363473769812 -8.169113053058616 0.0
213 2 14.868620524299432 15.006948123347538 0.0 9.801113481254548 -12.377535203934109 0.0
214 1 15.016108127900932 5.860095168104508 0.0 4.307054265618751 1.049802169358571 0.0
215 1 17.37673215484509 12.063900766710077 0.0 0.05908536773652194 -1.2471546731973613 0.0
216 1 9.300573901095037 1.851477941296278 0.0 -2.0591586322858846 3.073472848566598 0.0
217 1 14.016214049070275 17.72502538178136 0.0 -3.61808188559766 7.794011222766822 0.0
218 1 5.320490636776906 18.886643922874292 0.0 -9.357047067333227 -22.103355596765205 0.0
219 1 7.491019303510763 3.4100956192360483 0.0 1.4059809533113863 -0.7111375786064055 0.0
220 1 2.345834130022172 19.054459050365526 0.0 -12.314674851979266 12.289110513949284 0.0
221 2 15.130355377140807 10.88757452801402 0.0 -6.7957761733782 6.273893616004191 0.0
222 2 5.131529412327392 10.125043868198102 0.0 1.655976368795672 2.598475960512877 0.0
223 1 13.333725853552371 18.18091546612274 0.0 -4.056546037490085 -10.59493891541433 0.0
224 1 16.184899499542063 9.631045738577116 0.0 2.7316855563521165 4.165588252370458 0.0
225 1 3.5034263690510348 13.605157718081438 0.0 6.78271149756378 -3.406115125024187 0.0
226 1 8.59045487702009 6.097487399290066 0.0 3.1970289659076556 1.0369734285525203 0.0
227 1 7.523414081663313 8.430923413177828 0.0 -4.561177883418254 2.1734318635274166 0.0
228 1 13.937550891908487 14.297943684408285 0.0 -7.303144840286956 -1.7405846825894007 0.0
229 2 9.873665951154885 17.890668533601815 0.0 1.4719046510836262 -11.237706726956915 0.0
230 1 12.157333402291775 9.271997165650587 0.0 -0.18930282789759695 -1.5589495765910937 0.0
231 1 2.1515843015131297 1.2810802954477818 0.0 1.934631619615616 -9.764312472013618 0.0
232 2 7.799944085798928 7.173668984905201 0.0 1.6157921386001195 4.089702937470299 0.0
233 2 0.4442709888551783 4.870160321610351 0.0 -6.446556507093406 -19.158198485125208 0.0
234 1 0.046862382635475826 3.679377300237456 0.0 9.914920896332825 0.08066178277610302 0.0
235 1 15.599935113107865 9.437496034237007 0.0 -17.94042147003977 17.330591860789205 0.0
236 1 7.081041235348494 2.6908029625089385 0.0 -7.551601764440088 -11.401585311711248 0.0
237 2 12.119978964176621 11.476868610640649 0.0 -3.93368183494488 6.791302054401842 0.0
238 2 5.986841169865777 18.53896568497752 0.0 -4.2671146506578115 10.624883688227754 0.0
239 1 16.18281840635066 12.984950775839815 0.0 -1.5885034372584357 0.8454819733294028 0.0
240 1 11.850187561230817 5.964352435350772 0.0 -6.517185958993799 3.4972295706802576 0.0
241 1 18.10916498195846 10.441239458799133 0.0 6.43128840406003 -11.304673908810265 0.0
242 2 3.797370877217542 11.810647100915192 0.0 1.6414038600584417 -12.30411420657284 0.0
243 1 7.9444058435004665 10.405272535140204 0.0 8.09773406606376 14.009733659739783 0.0
244 2 10.242764185358526 9.638152777243004 0.0 -1.595730891739239 -1.7306080605491612 0.0
245 2 4.523524526095514 2.63078986461592 0.0 -9.806211847957854 4.252587486764204 0.0
246 2 6.213577355106362 16.700655495541696 0.0 -9.867662012319386 2.11002884494985 0.0
247 1 0.521571232516783 15.713956425364941 0.0 -1.644285066846085 -4.957363993464326 0.0
248 2 15.83043075724627 5.2203302825727365 0.0 -2.2442707658164234 9.37633406172034 0.0
249 2 11.466532019371638 1.2298717940934745 0.0 11.001204712692688 -4.2665797329140815 0.0
250 2 7.088008082213985 12.510706824858076 0.0 -2.063295824126736 2.2900124126422607 0.0
251 1 18.309997771148097 12.802606467137664 0.0 -6.167771951661048 9.70071964003353 0.0
252 2 6.781831396630733 18.809867536710794 0.0 -0.24031205352490456 2.302967415372186 0.0
253 1 8.895676043892005 9.349668261935026 0.0 -0.8444032120442169 -3.1193841121433934 0.0
254 1 6.051252172444016 0.025043822768044285 0.0 -12.663489404976765 -7.755181247966272 0.0
255 1 5.788798686640369 4.262250071767843 0.0 -14.80901363128624 9.544725092969646 0.0
256 2 17.666393731028784 9.591508805909646 0.0 -10.136320851003118 -1.8089145654551186 0.0
257 1 16.86261993567282 7.975957483722633 0.0 -0.9046571878792867 -12.016751258285918 0.0
258 2 6.442016939391477 10.168331660112779 0.0 -4.482563654484431 -0.8859381497168252 0.0
259 2 5.057865986105125 17.740994035660492 0.0 -1.1124378114179445 -0.44770553124793383 0.0
260 2 11.77071569219353 12.70333019920438 0.0 -1.446652859862037 -10.617173765818269 0.0
261 2 17.95917467528028 11.32998613249746 0.0 10.04956603513038 -4.556195156048282 0.0
262 1 12.325966371793571 19.748501238101873 0.0 10.785679278930962 -8.643527048362108 0.0
263 2 12.678842944508025 8.550987922599544 0.0 0.28428089390364036 -14.252290433016826 0.0
264 2 9.949560037112635 7.105517942215202 0.0 2.4478969940370456 1.196725857650924 0.0
265 1 8.883119925410375 7.1317505913926915 0.0 10.408167566820955 -12.790365643771183 0.0
266 2 3.174655753003879 10.878856941483305 0.0 1.3220737186532219 -6.660461676245859 0.0
267 2 16.05440093480661 7.494692051385612 0.0 11.82346044321563 -11.30771201454698 0.0
268 1 17.966453584271495 14.54944336517499 0.0 -2.659477565799333 -0.403615733817977 0.0
269 2 19.688016758976154 19.1962933405432 0.0 7.812155927787496 0.7884519158700173 0.0
270 2 15.757569133343953 1.5182370724647738 0.0 -13.0583139583761 -9.448654043696088 0.0
271 2 2.2207822926803362 15.458023776170503 0.0 8.676444609082495 -7.396586978916025 0.0
272 1 16.63659030514613 3.6709436877272945 0.0 -1.81174034342885 18.54926389471574 0.0
273 2 5.30590764141808 0.584954172900046 0.0 3.844885369576704 -4.383725261310659 0.0
274 2 0.16641755182291088 16.638331642390277 0.0 9.078144681580792 2.8080506862951475 0.0
275 1 16.67813862072786 12.672033682976092 0.0 11.786175935252341 2.752683206384427 0.0
276 1 9.017419350770922 12.088141947384479 0.0 -13.082184866332831 2.9752109624700998 0.0
277 1 8.715542786293103 0.057204822526485614 0.0 -3.2435872013369007 -2.532082456984182 0.0
278 2 2.04531405600571 5.517466067075989 0.0 -2.342037593826525 5.642199032451523 0.0
279 1 19.13329202354691 13.684271901188538 0.0 1.4441766507038565 9.075991733866944 0.0
280 2 7.968388743233151 9.581825606895748 0.0 -3.8498701858738156 3.207860760192968 0.0
281 2 3.91804834299151 1.5690878816308909 0.0 4.550562669009612 -1.9391565503022181 0.0
282 1 3.38802850740483 7.545341909384545 0.0 6.423037166132483 -4.090890794369137 0.0
283 2 1.6823382547573835 3.141325652313973 0.0 5.497006881919771 11.308731992626656 0.0
284 2 13.008819678082851 16.80305763462578 0.0 1.82061032642678 3.1777962522309386 0.0
285 2 8.337742250573795 13.066693407938654 0.0 2.6537740414993563 -7.315749415386125 0.0
286 2 7.969835706770409 15.384451733186614 0.0 -9.660333564253936 -5.450013097729859 0.0
287 1 6.542968322313724 2.517814997897111 0.0 -7.830483254439745 -1.0009418112226878 0.0
288 1 1.8519646458161168 19.5018219735508 0.0 9.118711319229265 0.6865458087730302 0.0
289 1 1.8461161886161075 14.014667212218738 0.0 -2.1180599339172006 3.3332323937118677 0.0
290 1 14.1205148071616 10.256326454215841 0.0 3.1233537714412734 15.406977927302785 0.0
291 1 15.954225028171834 8.961771230543556 0.0 -11.84912991363814 -1.9043682873404704 0.0
292 2 11.158856027892462 13.82341778281157 0.0 -9.225399876813809 8.371027029069678 0.0
293 1 12.821428796181413 10.022565817405335 0.0 8.685777123331604 -0.8019084889284275 0.0
294 1 11.806571119005381 2.4763105231986446 0.0 -4.094531575466837 9.712190339977749 0.0
295 1 0.5154740618378253 3.081402628882368 0.0 -7.43549613852335 -4.400971559791137 0.0
296 1 11.502982381661662 16.930879675874024 0.0 4.15375696984488 9.791363618105544 0.0
297 1 19.412473313758152 8.942427103091703 0.0 -5.076184022070489 1.7718601044719497 0.0
298 1 5.191097652716859 8.975073843668643 0.0 -3.9738058577206816 1.4821307877656518 0.0
299 2 18.701854787885942 2.1888582519516913 0.0 5.895840248138558 5.767785813329565 0.0
300 2 11.174453560532651 8.360949226056192 0.0 -3.854040043918974 2.463260949693629 0.0
301 2 10.349697044989089 18.766997701170684 0.0 -4.779395331203611 -6.262508592075309 0.0
302 2 6.857364940553029 7.326268148200334 0.0 5.231504753094663 -4.801254402529319 0.0
303 2 5.4765063862762355 5.9256232040604555 0.0 2.3194371344507987 -0.9895396636914535 0.0
304 2 19.19843552042728 6.938593598131479 0.0 -7.100740279820183 -10.37148427963371 0.0
305 2 2.780802800493778 14.270037934501396 0.0 -7.60073094271724 -3.6931962793758175 0.0
306 2 3.092281104365919 18.590514506096298 0.0 3.13277277932592 9.143100292756142 0.0
307 2 16.798761617191225 0.490244133503107 0.0 -4.821022380959296 -0.02027384945061731 0.0
308 1 15.91302815203606 18.871566151092967 0.0 7.082405435423428 17.960750183951685 0.0
309 2 0.4615808430491873 12.882346071953247 0.0 -11.469278177949128 -2.542958173659597 0.0
310 1 18.01891808650594 8.730955356562209 0.0 -16.491825024722147 6.504393740025649 0.0
311 2 13.812025260891671 16.217166478449386 0.0 -5.48007875468618 11.395962946570016 0.0
312 1 19.756242388571877 11.361130191990767 0.0 -6.862576362596163 22.51183444944723 0.0
313 1 6.341956417251348 3.3247601613916204 0.0 0.5934740398950006 -1.3046536482250244 0.0
314 2 6.516599910851971 11.609250342435807 0.0 0.6090760983676278 -3.0913857621523126 0.0
315 2 10.730585777757609 16.251543578476248 0.0 -11.550756231670011 5.050109311836897 0.0
316 1 13.24162597106469 13.553121934429115 0.0 -12.22496150659448 2.4951004902597305 0.0
317 2 2.3127760452054025 10.640122573212189 0.0 -0.25467551870805966 5.752752371359072 0.0
318 2 0.9879425969586194 7.8804966690235405 0.0 11.028286128974443 2.2321373707678327 0.0
319 1 11.133181210231637 6.427314928497356 0.0 -1.3117536356652353 -15.079954353670395 0.0
320 2 10.295033754837565 0.13699112720686812 0.0 6.620525940167724 0.37324575802378 0.0
321 1 15.067040410288824 17.605141021552893 0.0 -11.671603653884281 -9.225539729436834 0.0
322 1 13.273243755279589 10.498855080164791 0.0 2.056316280142772 -0.1604724555288555 0.0
323 1 15.449328943717763 19.091706131317725 0.0 -5.102760888127746 1.2955221998354933 0.0
324 2 3.389909446303395 0.5021399434420359 0.0 11.782322035769164 -2.205042909871161 0.0
325 1 5.526787783906727 13.951820746536812 0.0 6.07665913086137 -14.460693396656744 0.0
326 1 4.297743521539017 14.499210960545057 0.0 0.4163424477812345 1.3775003960481145 0.0
327 2 1.0792183002715343 0.7134280054736772 0.0 -0.08273242944727016 -0.8070975983543824 0.0
328 1 4.755458594113821 18.70442626037825 0.0 -2.5042302264239806 -0.5558365871365243 0.0
329 1 7.052602666140753 3.353546682066483 0.0 -3.4987280599021116 2.4193410271504736 0.0
330 2 17.213385082795067 16.900093665215874 0.0 -0.8367081624978496 7.1018638547981086 0.0
331 2 13.999219659734695 12.93237487780617 0.0 -0.2817749600270655 10.322036630929968 0.0
332 2 13.414257233649119 5.862004326353851 0.0 -6.906066502570481 2.7019662274291725 0.0
333 1 18.370508379480803 15.381959938286593 0.0 -8.284494565529135 0.7530298179390037 0.0
334 1 15.548647700988402 9.948828340955622 0.0 -0.5686629953372857 -12.054423932986229 0.0
335 1 2.0876576336697035 17.95300999098035 0.0 -12.731042194527252 3.5182901082614957 0.0
336 1 12.917453647647983 12.740690701220425 0.0 -3.308722081982199 2.7331595327898435 0.0