ITEM: TIMESTEP
0
ITEM: NUMBER OF ATOMS
400
ITEM: BOX BOUNDS xy xz yz pp pp pp
0.0 19.7609 0.0
0.0 19.7609 0.0
0.0 10.0 0.0
ITEM: ATOMS id type x y z vx vy vz
1 1 5.39391379944489 6.371153572294199 0.0 1.478233596618474 11.573670126344132 0.0
2 2 11.534158793134395 10.08934959270412 0.0 -16.40374471740075 11.387288118428032 0.0
3 1 8.649887475729072 1.4051481451730319 0.0 -5.098085105580441 -8.657139706867211 0.0
4 1 3.9632931446022366 12.651962221935914 0.0 10.010207789863818 9.65434512312547 0.0
5 1 8.170679276019044 4.638825176998876 0.0 -5.682351071051805 -0.501987008117501 0.0
6 2 12.856547234804728 12.375374074932385 0.0 -0.2918032004425598 3.944134717330839 0.0
7 2 11.124148397577676 6.57436261357906 0.0 -5.9588612567887145 -3.5163245707993314 0.0
8 1 15.199327906854272 13.534629607299406 0.0 8.955545774126307 -7.547471433794677 0.0
9 2 8.694130523514358 14.309271782697621 0.0 -7.71798805319919 -8.073578568828559 0.0
10 1 3.340204709941364 2.065711707961194 0.0 -5.301525409877058 16.977262456886397 0.0
11 2 7.840531870647871 7.868953749702167 0.0 -10.80807833230757 10.625488041383749 0.0
12 1 5.523884321825494 0.34279621315440323 0.0 -14.364961272525964 -16.310434574292135 0.0
13 2 18.967905478661283 1.769175167109063 0.0 0.9445575766964183 -1.8546551413608798 0.0
14 2 9.01459947862227 18.482605713575527 0.0 3.365109119062815 -3.2774225118388567 0.0
15 2 13.573069599122585 16.711193825328458 0.0 2.7886419825120297 -10.40647699791824 0.0
16 1 0.12331529699001989 9.537362331767245 0.0 -5.811316669223441 -9.542561732297955 0.0
17 1 1.5161187695099907 14.380180000767721 0.0 -2.575869890489306 1.4301604019922103 0.0
18 2 4.723784759090811 14.402764103463923 0.0 -0.8736877183593916 -3.6077088976189824 0.0
19 1 4.696495105502888 6.149545444295853 0.0 0.03365801204786344 11.195486727099793 0.0
20 1 5.933077123236313 12.654259538111539 0.0 11.1116238683878 8.131346312376747 0.0
21 1 15.477726852366448 13.190711207622567 0.0 4.274056372512053 7.090626821409205 0.0
22 2 4.106529843628806 0.6755190301825785 0.0 -1.1088765304159094 0.0071660200969178856 0.0
23 1 0.8296102869665368 11.587255748423473 0.0 -1.0177553226832439 1.6045140830869342 0.0
24 1 12.29750921277985 14.328538800785667 0.0 7.881462654883164 13.994368328503647 0.0
25 1 2.2661178751806528 17.943319665524548 0.0 8.491551786986047 -1.6539653459810875 0.0
26 1 1.3072461359591165 2.8018273351484226 0.0 -5.006893023186605 -22.016553806331192 0.0
27 1 19.14846665295504 18.003718997390774 0.0 -5.75033886684189 -14.477313312201714 0.0
28 1 1.5998070006117857 16.82687335358797 0.0 9.60055469242948 0.959312398360507 0.0
29 2 2.9766679355588344 8.39453862147997 0.0 -1.5290160885829196 -9.225086905187814 0.0
30 1 16.58578314780818 6.78806980964457 0.0 -10.15728293761141 4.147729089744248 0.0
31 1 1.824226589301647 8.536008876764445 0.0 7.352126502707184 -13.800376536591518 0.0
32 2 10.265086311510627 19.128564225124975 0.0 -2.684803345046187 5.47487705633484 0.0
33 1 2.320739484196864 5.251104304696045 0.0 8.69480086879308 -1.7126515754427276 0.0
34 1 5.685373847354312 5.612165344606566 0.0 -7.916622832453865 8.934396889146402 0.0
35 1 17.375855526467813 17.20891727935749 0.0 -10.583054451237665 -9.12119736588118 0.0
36 2 9.190089187348597 2.4585764880150336 0.0 7.742224573075144 7.093354048410043 0.0
37 1 13.220825299173857 10.205219918830696 0.0 -1.75809186514637 7.441618299639993 0.0
38 2 14.117936511881448 3.8402482415903147 0.0 -0.431058294183865 1.0493386189435645 0.0
39 2 7.703554578980804 16.8665550788361 0.0 5.508832242321326 1.5219485171794873 0.0
40 1 2.266479163842259 0.7391781151790067 0.0 1.4793515066381957 9.491441649392748 0.0
41 2 4.656872607724595 11.42523393543062 0.0 -6.790116378721251 -1.843819520934724 0.0
42 1 9.349568219462128 11.424240484914064 0.0 -16.272685071206094 -9.553194349629077 0.0
43 1 16.262565260149884 10.356947551242763 0.0 15.518952497801235 1.0589844592123774 0.0
44 2 5.732130029726867 17.80789782719554 0.0 -3.0277114136902505 6.627571758496766 0.0
45 1 13.960991520916592 13.893351698918082 0.0 0.04384889686609686 -1.7020788446891402 0.0
46 1 11.189599309702754 12.531142647294182 0.0 11.203195005109304 -0.9828979958205765 0.0
47 2 7.517121692920584 5.3223353991599005 0.0 9.198510924841436 -2.3279092018257384 0.0
48 2 12.16865361429043 13.266044226517074 0.0 4.732200159626317 5.697917574773748 0.0
49 1 7.707085989332129 9.245102321363337 0.0 -8.928017092773239 3.009824905961273 0.0
50 2 12.46011139084952 0.026499478048135138 0.0 -1.4992274038418412 9.220993041986441 0.0
51 1 2.505601162445503 19.472484941240843 0.0 3.8268534451849385 5.343521917087748 0.0
52 2 10.987581914961655 2.604684207943136 0.0 5.95811626103941 -2.1538266843660145 0.0
53 2 3.663936572931278 5.244409628449053 0.0 2.158722341668462 -1.911808503544772 0.0
54 1 14.574875400407905 17.822950556066296 0.0 12.713995118494338 0.7966756729390158 0.0
55 1 13.07167844881645 1.5314206065056157 0.0 -6.565830611404221 -13.993175071582677 0.0
56 1 6.1805672646714624 8.009659284988395 0.0 -11.211532122043986 -10.979424095689614 0.0
57 1 10.647795057212274 17.364987664590338 0.0 -11.83501775086907 -10.945177288237781 0.0
58 2 18.711131327535483 15.1217674367894 0.0 4.464728747804724 -2.0853586806507542 0.0
59 2 1.0827913938650244 5.810115072744986 0.0 -2.581490406690462 -3.831776821892052 0.0
60 1 2.659770359664528 14.636686521159605 0.0 -10.218271864057016 7.589754888551127 0.0
61 2 16.571055949136568 17.956985426095454 0.0 -3.2720830397820726 -1.1834715673508331 0.0
62 1 12.356131597450375 1.1777253645582884 0.0 -13.806082250565613 15.950682347431073 0.0
63 1 3.7281280672588646 8.349937436111995 0.0 1.2108909332681776 22.707908995469825 0.0
64 2 17.46945457026185 6.083871642182813 0.0 -1.2806823941944485 9.899749181839933 0.0
65 1 4.5795782776955365 4.54861591109959 0.0 14.556484954310218 1.6153063764917002 0.0
66 2 8.357859764615302 13.492987044040172 0.0 0.378552973836563 -6.972833668743784 0.0
67 1 19.28019259882199 18.950856112940688 0.0 -1.19241864359668 6.4520228591794755 0.0
68 2 11.176323766666524 18.915244420123983 0.0 -3.907798816964317 3.129631337145514 0.0
69 2 8.746359839657508 3.329615250776008 0.0 -4.903352777456517 0.42234408596339135 0.0
70 1 18.82087283181246 19.56969890823942 0.0 1.3428820283091694 6.13055866433525 0.0
71 1 15.906700067639392 9.129709123685096 0.0 4.971598536672414 10.412371680224334 0.0
72 1 3.948194823885509 3.5980162133638425 0.0 -6.9416685974993975 11.549503505255313 0.0
73 1 1.0649611004115858 17.993540350911253 0.0 18.511816604236152 0.17110234951946826 0.0
74 1 11.291300660897639 12.063680722065309 0.0 6.444180889376348 3.5238574380002308 0.0
75 2 14.108060792005602 6.920342715484805 0.0 1.8658508265605096 3.921266968386495 0.0
76 1 8.427649447520675 19.008421501019644 0.0 3.1891393967685278 12.804514088718095 0.0
77 1 19.732008538970675 5.158719316898465 0.0 0.8408534947690182 3.4958685160382545 0.0
78 2 6.5079944116968464 0.672342718695503 0.0 1.1109286414825836 -3.445986382815638 0.0
79 1 9.071020847361616 10.942218564840175 0.0 -8.7923096961033 -0.6487690408270821 0.0
80 2 15.402102721572065 10.953403106750415 0.0 10.266666153468226 -2.614997814525917 0.0
81 1 6.9014179350423195 15.690453064173935 0.0 -0.920490315533536 -6.62620265448892 0.0
82 2 17.63685977116142 11.344063285918 0.0 0.9309592579492167 2.0473044672746363 0.0
83 1 5.008974661790062 10.725679444751743 0.0 4.976652042509245 1.2896274289003413 0.0
84 2 12.401249614282598 9.283387450374523 0.0 -1.616655492303433 -1.8278557208574382 0.0
85 1 10.565723219446374 16.805838510182785 0.0 7.145728904488584 2.7211259565119894 0.0
86 1 1.0277331682354742 0.7860699676190032 0.0 -2.8047143029639057 6.323965479363805 0.0
87 1 15.264880365182103 8.701545215341088 0.0 -0.5167105937954833 -23.876734202272942 0.0
88 2 9.092906409596662 9.995753166210049 0.0 2.3178800513274185 -2.7188500334224814 0.0
89 1 17.418943782629235 13.0596746559116 0.0 -6.845170976653466 7.220244473395621 0.0
90 2 10.007543852423506 12.40436490401429 0.0 8.614160227627329 0.5460895838521918 0.0
91 2 11.133737094806092 8.74587535935503 0.0 1.0779900963455291 8.156759688324751 0.0
92 1 18.094504080347257 9.512659282982458 0.0 0.6865366318851963 6.971339778473146 0.0
93 1 2.6990045377309198 3.0780681363712605 0.0 -7.933298209256947 -6.6200321184346045 0.0
94 1 16.77965953719287 16.974647907715276 0.0 -6.712772087558341 8.75729892000179 0.0
95 2 13.780543294313063 17.73766035832472 0.0 -5.816350553231684 7.405487989494669 0.0
96 2 9.19632214605545 15.11134772147937 0.0 7.160404601168813 -14.86803310869788 0.0
97 1 4.777822946246992 10.336318928377441 0.0 -6.030626983386091 4.485194877701523 0.0
98 2 18.20834550474407 16.12380477788233 0.0 -7.936616080897092 7.248210186426317 0.0
99 1 6.513702424415809 13.170541442376932 0.0 4.883512743654553 0.6280168303849101 0.0
100 1 14.397366833963433 16.62027182677855 0.0 -2.1343558614236997 7.070426226560601 0.0
101 1 4.876912164533292 17.686230157707307 0.0 2.620423797604115 9.907303434286458 0.0
102 1 5.340704429309158 10.434864520498664 0.0 -1.5813871439426643 8.127878957513694 0.0
103 1 0.17893749302426304 14.956746310322092 0.0 4.389491805198404 -4.3756124391999265 0.0
104 2 9.506962221294062 16.736606532072095 0.0 -1.995910906150384 -1.1777591941248604 0.0
105 1 7.6760058712476145 9.921355072610925 0.0 -2.804209147046105 -2.449171549962932 0.0
106 1 18.71957707396408 13.056393657000685 0.0 7.177858727663512 -4.488491778878286 0.0
107 1 11.323572633507213 17.510556655817126 0.0 -9.785231771749967 3.2152781073286314 0.0
108 2 11.719784617509236 3.9170152142908448 0.0 3.388076677082506 3.2030005394873116 0.0
109 1 4.366440592360543 18.324271064645835 0.0 6.378388266909616 -17.93901255929924 0.0
110 2 6.067288052195982 2.2924598601506596 0.0 -4.357068157352119 -1.9637407472138968 0.0
111 1 11.87000959327995 14.615285987071879 0.0 -3.7696525819065867 -20.73281070705001 0.0
112 1 16.420643332417818 8.671457182244216 0.0 3.894681947740635 -7.6625811756147835 0.0
113 1 14.525586825645808 19.343832506332866 0.0 6.509847648111408 5.954344530157276 0.0
114 1 19.65400203971006 16.29346637387315 0.0 -4.837770367026152 2.714940669306263 0.0
115 1 6.574474755376576 7.581013923329591 0.0 -17.845595377801242 6.742304213292393 0.0
116 2 8.420001590930655 11.823641914886712 0.0 2.7575918821663588 0.42090162750506566 0.0
117 2 9.43923555635054 4.861043099043338 0.0 1.3967683278684986 -1.2677244447549074 0.0
118 1 16.737094427930682 3.4536231029228417 0.0 7.975818413037367 14.703372657550021 0.0
119 1 1.3339888312454105 13.975366252313153 0.0 10.207259143181368 21.78791772586686 0.0
120 2 10.566998571519006 11.65096175973043 0.0 4.477307959838749 2.2487902650577074 0.0
121 2 5.263554404842264 1.3197052587754492 0.0 1.725626584531092 3.5104703485426354 0.0
122 1 14.782065704741457 2.008458865875487 0.0 -2.917918223201173 -3.1299530898279433 0.0
123 2 13.955606556032858 1.8487236653797956 0.0 -1.5873923172829645 -4.656467342457568 0.0
124 2 10.574297481762072 9.685572070710728 0.0 0.7229696632006962 -2.6156511452569378 0.0
125 2 9.188170672590141 3.972930938026427 0.0 -2.5553296792778117 -8.964254524791215 0.0
126 2 10.689117414282922 5.019805707350528 0.0 -2.7437385718707517 -1.9886570688444418 0.0
127 2 13.53786608598199 15.342710170374843 0.0 -6.10485544135676 -0.26503919046991264 0.0
128 2 7.097869542610384 4.515256980002297 0.0 -3.1966751365873316 -14.827310958642569 0.0
129 2 2.205638955179319 16.090811870463416 0.0 -0.2981707134730007 4.015978717136032 0.0
130 1 3.491333981942332 8.961262147456713 0.0 -8.178541373410496 -0.641161970731059 0.0
131 1 4.824600639140955 7.808254510295651 0.0 9.030787461341774 -4.3529484542618935 0.0
132 1 4.383844190575787 3.0385281783507554 0.0 -11.638911331380488 -2.414772980810031 0.0
133 2 16.134008431936728 15.293581911255755 0.0 -6.454036321775564 16.516098301744993 0.0
134 2 12.399756910817368 10.40585852632281 0.0 3.631451875638884 -0.3726191957626341 0.0
135 2 12.766066117287826 4.338577659339131 0.0 -8.383043526546945 -7.45202978222812 0.0
136 1 4.192709990289445 18.948696346217844 0.0 -0.7307843841983073 -9.746039810362877 0.0
137 2 8.518558192516526 9.164407665544541 0.0 4.8609812272020845 -1.1383836232128828 0.0
138 1 5.773200272879209 11.852118610610948 0.0 -2.82283509236202 14.873975657034578 0.0
139 1 18.266145959059084 12.815527371274507 0.0 12.596852525907607 17.01079779341036 0.0
140 2 18.01888125070229 5.368080581292646 0.0 4.249696154638297 -0.8506792391274597 0.0
141 2 13.79433629861654 18.67673850017972 0.0 -12.25627960220029 12.2713858316225 0.0
142 2 16.03342896591298 4.348696184146445 0.0 -1.5990507542020782 1.0752584826724256 0.0
143 1 4.8526673367273565 4.962300533714137 0.0 22.969403583386093 -12.355674059414415 0.0
144 1 15.078096916143517 19.572724143788644 0.0 -7.429562560799686 -11.392586252215729 0.0
145 1 19.261864468177656 13.362609985997084 0.0 5.579498684714884 -5.438732156233334 0.0
146 2 5.094426033570662 3.5357006492618597 0.0 -4.724849158747865 -7.077981933860424 0.0
147 2 11.343747764107478 11.153348641158075 0.0 -0.3045912946653939 1.7759771920670715 0.0
148 2 7.309119913813541 6.268267063827503 0.0 3.71718051961084 -4.7520259988636795 0.0
149 2 10.376505395599404 8.182547039503016 0.0 -9.359810233094365 2.5822389461588475 0.0
150 2 1.0795646265926524 1.7740839906260586 0.0 -7.526386805274732 -16.934153683082247 0.0
151 2 2.0791841372056474 3.837553497977998 0.0 -4.9440562250891755 4.345364004396253 0.0
152 1 7.752551387486402 15.510691365434703 0.0 -13.297937114796754 1.9876483473926265 0.0
153 2 17.974636921360492 12.084322832653658 0.0 -4.7051141330783866 9.50027655373807 0.0
154 2 1.358568435043225 10.503499329608513 0.0 -4.9256808903388976 -3.8148800006743673 0.0
155 1 19.29247540959632 9.605234008646276 0.0 -0.40602626804127373 -10.988178313795919 0.0
156 1 5.2598324076818805 8.734621206145434 0.0 -2.8544682753737423 -8.90137571036292 0.0
157 2 9.357339112091298 8.039540754948868 0.0 -3.9192443291822263 5.964650210941777 0.0
158 2 15.900781415633459 16.210303142988444 0.0 3.9517871734799805 -0.05381896435715156 0.0
159 1 13.619845042145071 0.38195303857643575 0.0 15.564014132151627 -11.653095231335373 0.0
160 1 1.2944957408979347 16.474926270426945 0.0 -7.900036699731539 15.048894831210525 0.0
161 2 2.533777382611622 11.207392369774599 0.0 8.268827608223168 -2.5376612786316395 0.0
162 1 17.092088074901138 16.447257119056182 0.0 -16.300988367090227 3.0367429418802008 0.0
163 2 14.902918290027877 7.449611122898997 0.0 -11.345142154432267 -3.12081925624661 0.0
164 1 3.5883403319741998 18.953414620461178 0.0 -3.7123198971956137 -3.4088114160331635 0.0
165 2 2.613471208931458 18.718190460135798 0.0 -11.695423131278341 -10.949496561458934 0.0
166 1 19.67162079912242 6.03842910287881 0.0 7.595862522415351 -3.2032458939329693 0.0
167 2 2.7451336495810676 17.006123246087064 0.0 -7.025706752005515 0.07266192644572725 0.0
168 1 13.46781582881074 8.591924098972349 0.0 -13.426092369047907 6.071356404418593 0.0
169 1 18.796819072654724 19.044696387941748 0.0 7.975782804352777 5.46140789781013 0.0
170 1 19.433835755895007 15.703882675882689 0.0 8.995240625024898 -6.402671652498912 0.0
171 1 15.446674463245946 18.76092054391607 0.0 12.416928902740276 -14.472294116102942 0.0
172 1 5.093756606978037 17.158102438784848 0.0 1.1209838826381142 -19.04434287995451 0.0
173 2 3.459456583574364 6.272754765780227 0.0 -1.2628295213314749 -6.157750212220064 0.0
174 1 9.695531673749183 10.922741395255303 0.0 -10.53764598063009 -13.514104060932294 0.0
175 2 4.142845175486318 1.7539917763931032 0.0 -2.896591184460777 3.99263866882618 0.0
176 2 10.659983432280942 13.092020867517968 0.0 3.6917359334822892 3.294926678408248 0.0
177 1 15.063748150086761 18.99880238073049 0.0 -23.057974933965706 10.301942342157147 0.0
178 1 15.823165438554721 14.53363069361243 0.0 -0.8931719334203009 3.887179891680288 0.0
179 2 15.523184610820843 10.057368901030308 0.0 3.9235749339152393 3.8425859375471987 0.0
180 2 7.540838012035197 1.522811570441617 0.0 -5.405194828397482 -6.732263747120788 0.0
181 1 10.235777954913429 2.147698514349752 0.0 3.3632149849134465 0.3269966319676875 0.0
182 2 9.718021355698692 13.777673029515261 0.0 -10.56364373182788 0.7519732542622789 0.0
183 1 0.29683474004805144 18.023288511298812 0.0 3.702418290354102 0.04320449693978106 0.0
184 1 1.9570560713277694 7.366503518895189 0.0 8.27226917183009 -3.086954013670656 0.0
185 1 5.649646185560593 4.279086461355054 0.0 -2.8062417709083882 -10.15758152526413 0.0
186 1 2.2208992134000587 0.10309618369422931 0.0 9.120620228112504 7.743598965227058 0.0
187 1 19.08742479459241 9.093986606332615 0.0 -5.744175863031623 0.761110190013857 0.0
188 1 6.695760795134753 14.188672202581492 0.0 2.5078807633690077 -5.266289974460715 0.0
189 2 6.072068233359233 19.484639800337728 0.0 -6.941468027776405 -5.156292850539412 0.0
190 1 18.626030705051935 10.137256913494507 0.0 -11.488265548786254 -3.0672602075740274 0.0
191 2 4.985833624829693 19.387029021428287 0.0 2.4160242017407545 0.6427462655169827 0.0
192 2 10.524590921725116 0.8869205949079078 0.0 -1.7387688938012456 0.9249253857984334 0.0
193 1 16.343831462624173 9.47103288668839 0.0 3.2528740514383907 4.779243296409655 0.0
194 1 12.954242326554484 17.28584069206275 0.0 13.988950976729898 7.169036192317453 0.0
195 2 17.843717708436845 10.472944474635339 0.0 -4.860623841666295 0.2638546513039106 0.0
196 1 18.755675520074995 3.885036672418876 0.0 17.160374990741104 -4.913761117230521 0.0
197 1 1.8194957683825501 12.972695741551254 0.0 -9.51475186158062 3.6122312833853085 0.0
198 2 5.656662704394965 16.501599604021123 0.0 -1.9645446275236105 3.281899436342987 0.0
199 2 0.6291912028019574 4.286597686750442 0.0 -1.4022805835517633 -1.9650221510929313 0.0
200 1 7.843996047178788 19.21050019896084 0.0 2.9843104883693776 -8.521809918872323 0.0
201 2 2.413338483649224 10.089603038037053 0.0 11.471382285060844 2.038288695553276 0.0
202 2 15.010749379745942 15.288233579187162 0.0 -4.94307404949411 -3.1851562452489697 0.0
203 2 2.517996295304984 1.851607407112758 0.0 -4.4369485037374385 3.09364910099136 0.0
204 1 19.656088660055445 1.4028385998947468 0.0 -7.8909968949054905 -16.456660691310113 0.0
205 2 13.208286138917254 7.192285881616708 0.0 -2.3705001183262016 8.2277865682172 0.0
206 1 4.377344811482187 9.445100088883878 0.0 -10.254671122929208 -4.2561479348409526 0.0
207 1 4.741689218750717 8.414840032075787 0.0 -8.823388161257878 12.262683680423994 0.0
208 2 11.569947425675489 5.099868788457979 0.0 -3.043033120422375 -2.972455337437908 0.0
209 1 10.541687897713604 10.505776268279293 0.0 -17.580319868219743 4.760498676072741 0.0
210 1 17.506287246788794 14.519223311886313 0.0 2.0634387605919087 17.63773572312193 0.0
211 1 7.408489195073882 12.426519404215258 0.0 -16.82560883865166 5.642355152917963 0.0
212 1 14.478792563336565 15.918081652091596 0.0 12.490514995841481 1.6533403092841918 0.0
213 2 15.344655671477952 12.014045086617871 0.0 -6.1107698126463275 -9.998509021877302 0.0
214 1 16.39160955484468 2.6581788727578477 0.0 -7.702846798805201 -10.290963481917661 0.0
215 1 15.837434759017603 2.2870495900756174 0.0 2.588465369184869 9.426748471269565 0.0
216 1 4.746280288289692 12.301284623085408 0.0 -1.776638440238686 0.06744140030710055 0.0
217 1 13.901377220082738 11.861356794873545 0.0 -0.5308278066735137 -3.9658054419069724 0.0
218 1 4.110176895095894 15.086416346462919 0.0 13.570411018126045 1.8032068267457688 0.0
219 1 1.331007989335457 7.230622760837966 0.0 2.005968946744546 4.438123666215249 0.0
220 1 1.2729031740143222 12.600925072528295 0.0 7.927652934821759 4.776017195685469 0.0
221 2 16.98618164449021 1.5351410367685878 0.0 12.270377416506573 12.888235237767457 0.0
222 2 19.023890137127925 10.756435834367783 0.0 -4.3562776631126905 -11.145142250844387 0.0
223 1 0.4026738762786892 15.497018547553324 0.0 5.954413009232604 -15.392556723519487 0.0
224 1 13.987202889881994 19.41393137664278 0.0 14.227708184662644 -1.7607364491796451 0.0
225 1 9.151942503595128 12.136007139179863 0.0 -10.544472031512607 -3.184555070366504 0.0
226 1 14.501180533518331 11.918584061188424 0.0 3.554754939822512 5.487421885678185 0.0
227 1 1.7871106649035935 2.345693666904461 0.0 -0.7863094658263546 -10.397371375149262 0.0
228 1 0.7458628703590773 19.236912823016652 0.0 14.310469733764247 0.5771354760593137 0.0
229 2 14.158958743595974 10.712875128726543 0.0 -2.076179564288963 -6.372913339777882 0.0
230 1 17.92938944279614 9.05255534949902 0.0 17.936621256258963 -11.336665175330966 0.0
231 1 4.069217907077219 17.812123720982385 0.0 -4.248253371171812 -0.8353044217976041 0.0
232 2 13.625896292830717 4.662606317888922 0.0 9.396328988109115 -2.0164901069414984 0.0
233 2 9.125712173309276 13.01011540828243 0.0 2.23841107599076 4.648772955311074 0.0
234 1 18.239850657418764 8.587259068635596 0.0 -3.7774695470274477 -0.027726131138202464 0.0
235 1 9.504337074741265 6.877157367969931 0.0 14.124122191215113 -15.874800863637354 0.0
236 1 1.7633906235167538 6.391569978033357 0.0 2.046775210614148 5.695427746384019 0.0
237 2 15.30212856194981 1.4679786602790634 0.0 -3.8067350440382386 0.9704632693565255 0.0
238 2 14.303336537541483 9.737993610983992 0.0 3.736092776146198 7.659466213692249 0.0
239 1 16.887766608937817 9.293961380216444 0.0 7.747080694643657 7.425597482530242 0.0
240 1 0.06692980308992176 8.83402668480335 0.0 -3.818556215730993 -3.615433815559706 0.0
241 1 4.814419651712381 13.19560487967481 0.0 -8.707346621079237 -4.029927583489941 0.0
242 2 16.571398062885272 11.424574001587088 0.0 -1.900710184581219 0.16703075273006743 0.0
243 1 6.052013154937329 18.529575960534522 0.0 7.151893970963189 12.367031214918855 0.0
244 2 16.66488871403583 5.704820963967508 0.0 0.2063765425232158 -2.2360955507485794 0.0
245 2 6.138455577784911 6.7238497378575195 0.0 -3.995499022404876 -4.960302370988835 0.0
246 2 7.376546543479503 14.455253442199634 0.0 5.200960005098188 -6.787207368080406 0.0
247 1 18.29125548125853 13.804856947640719 0.0 -1.9588278459686976 -2.854474024820202 0.0
248 2 17.604857095406473 0.45944490890413137 0.0 16.29528063376387 -1.2160857024584317 0.0
249 2 18.84564061115535 11.72270554192189 0.0 -10.828541738130493 -5.675354953167051 0.0
250 2 18.09056541257238 1.8152214253710506 0.0 -1.2967304717686392 -1.7187410939149277 0.0
251 1 7.277636632842025 0.053222480768546396 0.0 -6.108131086516982 11.111547959960708 0.0
252 2 7.728157214667663 3.7152339439056594 0.0 6.942151297257824 -2.1022852816664934 0.0
253 1 19.24704697550915 5.320028930457516 0.0 7.872508227367346 2.1984215461146204 0.0
254 1 17.61704006223426 15.159076875417508 0.0 1.9925683519728679 4.5406511013821795 0.0
255 1 3.8012354326125375 9.526925369115803 0.0 -0.6191153045919249 -3.701303555817577 0.0
256 2 13.238716805089389 14.312216318199086 0.0 1.3375907948577455 0.3365635365262988 0.0
257 1 17.744409586341163 13.469463118826601 0.0 -0.5408473236528775 -4.280244760865388 0.0
258 2 7.379564825504239 18.325723632313494 0.0 -1.8741373514199147 -3.6531985062401557 0.0
259 2 4.546857423838523 15.776880774430246 0.0 2.0037209244206666 5.384724387723768 0.0
260 2 16.62452356694171 0.5601696873995438 0.0 4.29661578749705 -3.263979355313961 0.0
261 2 8.376632137939387 17.81194571330618 0.0 4.042996345937758 -10.799441047839574 0.0
262 1 4.550243692737697 16.85478081396964 0.0 6.933863603157334 4.457637486620319 0.0
263 2 6.932224442374403 19.024243418337342 0.0 -11.316902065925957 -7.600509192680326 0.0
264 2 9.992030383772041 5.748403624040119 0.0 9.913470305446797 3.5008690286331197 0.0
265 1 5.186837443811795 8.116949470839318 0.0 -5.7839454851137075 -5.720636873725951 0.0
266 2 1.645761305066921 18.688945500784335 0.0 -1.2193765490833832 -8.021375006655159 0.0
267 2 5.942967550583508 9.432892464535815 0.0 2.733196103713301 -3.916509688811431 0.0
268 1 8.585613501188803 5.221005581434964 0.0 3.1813655979315265 2.6567928036687847 0.0
269 2 9.534744790047828 1.0556218048965413 0.0 -6.923108329692173 -3.6977555968927684 0.0
270 2 4.331149043331032 7.20712727751736 0.0 -4.947833784254954 4.504528391340971 0.0
271 2 15.447917535330118 5.449960799533818 0.0 -1.2621530865038675 -2.888609812409333 0.0
272 1 16.147713110177026 6.424054660602727 0.0 5.150407565897557 0.14394021129511345 0.0
273 2 12.069398384622415 6.145746546303123 0.0 -6.665355962258655 -5.8678808718432 0.0
274 2 17.378740010919884 7.012993180756241 0.0 5.758164957839274 -9.26946103665408 0.0
275 1 13.98808763893817 8.64557204057914 0.0 5.187305643593895 7.053800269726551 0.0
276 1 12.357337181564983 1.8376934864342676 0.0 -8.670158195199921 11.300730094514549 0.0
277 1 4.748688362333967 9.170403355001897 0.0 3.222015058738186 -7.483910245715055 0.0
278 2 15.368809932424396 16.991037097333326 0.0 -7.78215714658397 -17.31516921604249 0.0
279 1 5.515535970806264 11.092121114256647 0.0 10.24588737602741 7.821478372057983 0.0
280 2 19.697052853825195 11.797629177341257 0.0 -3.7963620763245967 -4.195879506190141 0.0
281 2 11.91634417537848 7.5323495631874255 0.0 3.426678640560885 4.765747504647924 0.0
282 1 14.592356961195382 12.508035638817834 0.0 1.7469362679492177 -5.241170254994679 0.0
283 2 6.517415457330772 3.8438161424387687 0.0 -3.989194080265315 -4.656236683460766 0.0
284 2 18.994997411271225 2.7700680262889823 0.0 4.310114224259415 5.481901188643282 0.0
285 2 0.11487929816232607 3.602745583969926 0.0 5.323453256925758 3.9509831787423186 0.0
286 2 10.631424711208082 14.167618033061874 0.0 17.48264692784061 -1.787940961525849 0.0
287 1 0.801117524540693 18.790227183818807 0.0 6.506628218133468 8.73010453444369 0.0
288 1 6.892059302247197 16.44589591976081 0.0 -1.0726570130456312 21.072471312517656 0.0
289 1 3.2842206968834677 14.249782656298756 0.0 7.317538409135325 5.888391436818187 0.0
290 1 19.02291150590929 0.9985433021168449 0.0 -6.788632210547233 14.084931132195068 0.0
291 1 12.086769136293162 11.54204778399222 0.0 -13.180704801514265 -2.6320392633599616 0.0
292 2 6.638354693185531 5.417782937977941 0.0 3.0805912496348054 -1.2398834837139738 0.0
293 1 13.492414895943439 3.2927685031252354 0.0 -0.7116843261898556 -9.522716290224592 0.0
294 1 12.128493107655867 18.962589813392974 0.0 -0.6393473620570901 -13.85630535355527 0.0
295 1 8.9908688867307 5.970164613118797 0.0 0.3586453330818661 9.929492232765217 0.0
296 1 17.01850544187743 15.087832026957873 0.0 -6.7560331742583255 -9.718861738012498 0.0
297 1 7.029291255111059 7.1800808497083795 0.0 15.849935589773516 3.0347922164703824 0.0
298 1 3.6288376955544 15.784419174025912 0.0 -11.049456788130234 2.424055712539046 0.0
299 2 5.14115888501571 2.2708908829987604 0.0 -1.2217157855710226 -0.803601236948629 0.0
300 2 8.12259308779813 2.57132396727597 0.0 -7.228027738956088 0.3870399587156611 0.0
301 2 1.9894506921130637 11.972856495140041 0.0 2.6643931257018734 -9.229404552892467 0.0
302 2 12.342299258640312 8.288017759201905 0.0 0.525302645271359 0.17361737040653116 0.0
303 2 14.19398163914027 2.73066413021413 0.0 -1.843987931878831 4.298444702835492 0.0
304 2 16.655069363040493 14.178676881165467 0.0 12.616653822356062 7.316768860043169 0.0
305 2 18.2686861426047 6.219822906076269 0.0 6.015220057516877 9.358489021610247 0.0
306 2 8.923529508649857 19.739750200575763 0.0 -0.0738724456846553 6.524750923523099 0.0
307 2 17.352001608692035 4.673253351473041 0.0 -0.5370379920056562 5.046647379722156 0.0
308 1 19.75745657687529 18.575427381120956 0.0 -5.538717404912121 -18.59855580875711 0.0
309 2 14.379620805552571 0.6593016925092234 0.0 -0.9029435299354919 0.19310057219953938 0.0
310 1 19.462328713049445 7.475669349729548 0.0 6.997821175430136 9.472728511951614 0.0
311 2 13.110295776441713 2.333153256648249 0.0 0.6392548061722009 -5.646585131690873 0.0
312 1 8.371701914532784 15.620929867709954 0.0 10.484950165639136 -9.117213741824123 0.0
313 1 5.052266673067767 6.8660588016296895 0.0 11.789933298548704 1.7975227545027697 0.0
314 2 3.635072427590931 16.506334466582167 0.0 -3.845979300714646 12.45845845444307 0.0
315 2 9.811301791865448 0.11713257349025073 0.0 -1.2162646263679266 -0.5958090920759086 0.0
316 1 8.856103492095382 16.05101349304413 0.0 -0.5035740151715666 1.8082166699945486 0.0
317 2 2.6600571700128857 13.288092464148725 0.0 -7.1320312283763325 -3.0407116238428094 0.0
318 2 18.2960597855521 17.780598968292175 0.0 -1.791934751336595 -1.187742442523496 0.0
319 1 16.050482258847097 0.08689230399153901 0.0 6.169493886859933 -12.757976842220781 0.0
320 2 0.586731571456306 13.208254096051455 0.0 -3.6289229596359722 10.31998092951017 0.0
321 1 16.340958219700248 16.82766300721756 0.0 3.3887899370467123 -8.297242447412804 0.0
322 1 19.056882877738015 6.444638224533845 0.0 1.9428557734177683 5.175570512894821 0.0
323 1 11.641193259430505 1.3636981285451686 0.0 0.8934082463789791 -1.308796125036213 0.0
324 2 7.184642660890138 8.545296175120631 0.0 -0.25554357327052973 2.09494257108179 0.0
325 1 1.5962907883241753 17.54927574108685 0.0 -17.575286090005253 -8.155624135806384 0.0
326 1 13.433839952954207 13.367388779191188 0.0 10.805594377471548 9.491372514269393 0.0
327 2 11.808629493857488 15.64318496163652 0.0 10.494245652638716 -9.059886366804147 0.0
328 1 10.18174148722043 15.96609183569733 0.0 4.96508914726131 -13.566212856574275 0.0
329 1 19.430807683657306 4.570630897818153 0.0 -4.049619092682998 -4.432048721799938 0.0
330 2 11.499764364280377 13.850030319143825 0.0 1.1955746793219044 0.6378137407252911 0.0
331 2 3.336404556492841 7.508848833454128 0.0 0.9105574137940726 1.6174865344136617 0.0
332 2 3.091055997236059 0.9553020610096433 0.0 3.5909100485402496 9.704554986720732 0.0
333 1 2.8318234119979997 6.797090130176769 0.0 -2.7293780092716817 -6.038387719653583 0.0
334 1 6.435672932605817 12.47004730141345 0.0 -7.01219791006692 11.948865302032125 0.0
335 1 13.356432688053138 5.5581833517865284 0.0 -2.3066350439568772 -25.334315592404664 0.0
336 1 6.545323133675346 16.98598789431915 0.0 0.881672161206539 -2.5111427714717904 0.0