ITEM: TIMESTEP
0
ITEM: NUMBER OF ATOMS
400
ITEM: BOX BOUNDS xy xz yz pp pp pp
0.0 19.7609 0.0
0.0 19.7609 0.0
0.0 10.0 0.0
ITEM: ATOMS id type x y z vx vy vz
1 1 2.914814251121369 9.077938889906328 0.0 5.115957209363504 -6.38002119791237 0.0
2 2 0.4751546810428619 7.00411456001296 0.0 4.799423077469753 -0.9708960520588192 0.0
3 1 5.32688417274975 15.39825341033831 0.0 5.820453706342986 8.956831947291473 0.0
4 1 5.380406573109219 18.097411555367962 0.0 -7.944851858296166 2.4004078249725507 0.0
5 1 13.876199769642495 7.741864004495841 0.0 -0.9910347727972976 -6.26375538827845 0.0
6 2 2.1367036083426587 19.71968952001708 0.0 -3.1995705441292315 3.5426634186327397 0.0
7 2 12.504310475155096 8.137816796803333 0.0 -0.3019153691221001 -5.635262482608124 0.0
8 1 16.76335844809037 10.437596923083756 0.0 0.3449797319515696 -3.538777847189707 0.0
9 2 2.3344483214848157 16.47045464112052 0.0 10.026753267626145 -1.5672727363289107 0.0
10 1 13.28512666172267 18.842848841704434 0.0 2.395775282498786 4.596540467586281 0.0
11 2 4.586899833716517 2.3043104273626613 0.0 -3.400975394690212 -7.106610397003466 0.0
12 1 5.444765529574686 2.8370407676567946 0.0 -9.724039000193628 2.472542230705504 0.0
13 2 8.979308055724937 12.28155155490705 0.0 5.404531792899603 4.971539655314224 0.0
14 2 3.075594422369082 12.153098857866029 0.0 -3.9417365543851335 6.984490323115762 0.0
15 2 13.756323712281892 16.370216625235315 0.0 9.088612883614337 -6.902866150413793 0.0
16 1 9.55405668801527 8.850650781071364 0.0 -12.268313498702117 7.829125147414761 0.0
17 1 12.041066661216638 18.659835693729622 0.0 8.167232607629986 -7.677705357882228 0.0
18 2 9.049514707892433 17.429481624458674 0.0 -7.208105555095622 -4.660091577241173 0.0
19 1 3.750241265856681 18.21559848221112 0.0 -0.756536951101455 -14.397541802401419 0.0
20 1 17.55385377813705 1.7013183393894513 0.0 3.8483464707784907 24.129517230837084 0.0
21 1 9.809186698826204 18.38686992317031 0.0 4.028743157930132 -4.15626351671575 0.0
22 2 6.062698565998057 1.6572172385388138 0.0 2.5481076627577055 -4.905272908038028 0.0
23 1 0.799310395757624 11.153887404534865 0.0 12.578365326855142 -2.209574735625865 0.0
24 1 3.645149835872324 4.072189986453035 0.0 3.10667347691346 18.89828427088321 0.0
25 1 12.77659523528242 18.376987446019875 0.0 -5.02188788780676 2.49409061451804 0.0
26 1 17.312582754112412 10.943360250124739 0.0 15.736950192409124 -1.8375626740396571 0.0
27 1 14.302014872005001 6.366008956177635 0.0 -3.295068806611491 -6.567987252698951 0.0
28 1 2.7472911714403447 6.819108108801569 0.0 6.149214410865247 -8.413169052172536 0.0
29 2 2.98717604552767 5.210902672753044 0.0 4.358710106721499 -0.79116356095182 0.0
30 1 16.932886408381048 17.822971194985772 0.0 -14.536419042809 0.043720523925803806 0.0
31 1 2.9007881346234625 10.303450318420573 0.0 -2.7133782513000924 -12.33292980278469 0.0
32 2 0.7166830498304044 15.439204582955412 0.0 -3.1977396782033645 -3.953889741824774 0.0
33 1 11.4911316227111 15.896064061866182 0.0 1.6556027895119214 -5.207671532572714 0.0
34 1 15.400503156644902 16.82917434087353 0.0 -2.207864295678073 -15.862650873674406 0.0
35 1 2.454072989014707 3.3974188550401703 0.0 -9.203051353585284 -3.738936286161363 0.0
36 2 15.562344656113215 10.488862135994712 0.0 0.01732530910998854 -6.423376527147367 0.0
37 1 0.3028691225817014 14.406902304271355 0.0 14.695863205815007 6.641887656093374 0.0
38 2 7.870518148947897 4.515242733796954 0.0 12.698677643636659 1.7781334257939976 0.0
39 2 18.613789756530263 0.20571656771726074 0.0 1.4279982911383702 -8.139381401567421 0.0
40 1 4.611581508462066 13.098528218220952 0.0 -9.861525275103624 -5.444776165850555 0.0
41 2 16.38612831359534 5.8440388883033005 0.0 15.87882413476393 -4.583076114859565 0.0
42 1 1.307002880473308 19.488339456790175 0.0 -0.1900133881798581 -12.121918423319702 0.0
43 1 2.404772774051333 6.5246663801077 0.0 -3.5569319799667793 -0.5380067170568352 0.0
44 2 12.900430225768106 12.930728891244032 0.0 -8.987281139265772 -5.897447029093866 0.0
45 1 7.71391145918909 9.107345826553551 0.0 1.5674019964439945 6.881359562408862 0.0
46 1 7.332764659740743 6.106554589163247 0.0 -4.171433159004257 25.491257973119442 0.0
47 2 13.922784560847285 12.953318152872844 0.0 -6.268944169750103 -4.8051357503666114 0.0
48 2 9.299514555681142 13.384021862768321 0.0 1.612121674267928 -7.376327851930015 0.0
49 1 7.5113736732322876 10.440630944035105 0.0 13.496712632977557 -3.414085100488245 0.0
50 2 10.903874450471346 2.33362553835137 0.0 4.087479874328526 -1.522171202653353 0.0
51 1 17.740819102004973 5.456817112901895 0.0 -0.6308419691536401 2.981681095402826 0.0
52 2 2.0156377328271207 1.2663169460611405 0.0 -3.8819956984696162 -2.1788411987472034 0.0
53 2 10.2819433087441 10.825183649602588 0.0 -1.7197196401155022 4.309057964634104 0.0
54 1 17.8327539798573 16.08989778486046 0.0 6.204120043232254 0.7789806242212148 0.0
55 1 15.451451542310203 15.055107270005765 0.0 -10.405043597822916 -13.671223564602823 0.0
56 1 8.584060505575373 9.491450676267972 0.0 11.771548010890697 -0.45217333724297054 0.0
57 1 7.6253382627967525 1.0626193192538727 0.0 3.345009028672208 -8.075141151194368 0.0
58 2 7.864939062373742 2.911227815347937 0.0 14.84682638897312 -2.027946055202255 0.0
59 2 19.14714619418438 7.098345399436527 0.0 -4.328999370170833 6.61348764348255 0.0
60 1 8.258649206070126 9.052747188717703 0.0 -2.1379235372439367 -11.550044903295815 0.0
61 2 15.548165032261679 14.175344148313341 0.0 -0.16610735517759437 6.574604437617679 0.0
62 1 17.64898462097439 19.639062553806014 0.0 1.3663883107855075 7.143789919699717 0.0
63 1 15.578831073325317 1.466901544588043 0.0 -4.053927457482878 -1.2649552273093119 0.0
64 2 18.743040243324394 5.774174191018301 0.0 3.694028288422054 -12.378574573857785 0.0
65 1 8.64828118283116 8.520280205546698 0.0 1.3177450876075765 -12.74834153363317 0.0
66 2 6.8573519073974465 18.025522680187656 0.0 6.483308892097699 5.0613514937625 0.0
67 1 17.256188121707176 9.799046652978388 0.0 9.310416140650833 -4.168923123524838 0.0
68 2 2.24257382352416 18.5354745070671 0.0 8.005893373441936 -0.020203796793648886 0.0
69 2 13.588794425390855 10.200178722456288 0.0 5.900099576008296 1.2639622544030247 0.0
70 1 1.6104921323480037 15.717613501204516 0.0 -2.6880286094203085 -12.66786767754297 0.0
71 1 6.912376538003389 5.8854610765955035 0.0 -1.0156797386849064 -8.392052326245 0.0
72 1 14.364344790245832 7.084312041931166 0.0 14.092070037614986 -12.161292630422317 0.0
73 1 12.054298364600145 11.398173436677391 0.0 4.639953559579852 10.925553539782424 0.0
74 1 18.121841938108584 8.796299485046383 0.0 1.9463788206935708 14.304340470674838 0.0
75 2 1.500046552548438 10.532456298930043 0.0 7.603170971577818 -0.8352352358647613 0.0
76 1 1.2274175132962732 17.589581082054686 0.0 -2.215244043063575 3.2156105946539535 0.0
77 1 17.15009232031975 11.970717858428973 0.0 -10.577794150152238 5.358983774066406 0.0
78 2 16.43141676828734 1.4092812929808083 0.0 5.754416862803458 -8.116128975332758 0.0
79 1 10.174624269712423 13.509400459511602 0.0 10.024286087770626 14.883667723309872 0.0
80 2 16.563641660928088 16.925869751121432 0.0 -4.414732133872516 6.2651018446193225 0.0
81 1 7.401620068457424 9.520762556602467 0.0 9.412960799340047 13.586395633024 0.0
82 2 17.493318335588086 14.808104880270204 0.0 6.834926338462925 -7.253882911004162 0.0
83 1 6.982922635504538 11.202789472605517 0.0 -14.378377695632715 -0.08411597063458104 0.0
84 2 12.834135754514996 5.5612608166133075 0.0 6.085160053113106 0.3152747247341163 0.0
85 1 19.424330825260252 9.738194775065418 0.0 8.272618638038052 2.1804662835121573 0.0
86 1 4.594734317799885 0.22907620963668654 0.0 -0.789743266133141 -11.759898789284584 0.0
87 1 19.75038793034898 7.9384927684535285 0.0 14.87481470586812 11.032471592777766 0.0
88 2 16.01763970096096 4.623741169280425 0.0 -5.2452502880507685 1.0155456471523365 0.0
89 1 0.6213227729710381 17.41497793249604 0.0 6.301971499893634 -9.030504548066688 0.0
90 2 11.88675157026069 6.513458729577426 0.0 -4.063068672154718 -3.532850176959838 0.0
91 2 7.833942322444141 16.506277772313425 0.0 -0.8206244420881128 10.879582581838205 0.0
92 1 13.838752524065727 18.273682211496848 0.0 -8.273898098197055 8.835504066186882 0.0
93 1 1.2205041488619819 18.672609099751256 0.0 0.1441421029210046 -6.286375413769217 0.0
94 1 14.751408021918612 4.092024714413964 0.0 11.84519886554322 3.130308220374107 0.0
95 2 13.40844917368668 11.069357964712994 0.0 1.1727478710167658 -2.2589469312029085 0.0
96 2 15.008421774043452 12.2340778290473 0.0 -2.3640880424183845 0.8610854439526275 0.0
97 1 16.61006607892598 3.4975610982939216 0.0 -5.279058757008567 -15.333941935559029 0.0
98 2 9.786117762304382 16.755555484764553 0.0 -5.071895875908471 14.12585376992867 0.0
99 1 12.590509607286561 15.369733496614469 0.0 5.514380207001995 -6.5633893966803685 0.0
100 1 4.4481012009453424 7.929430350554585 0.0 2.564654269546105 18.33597879599391 0.0
101 1 2.120046524174164 4.71012320651221 0.0 -8.138436970469945 -8.298335804671266 0.0
102 1 8.05347066999593 0.7060379280051042 0.0 -1.1694948030230645 -0.32368767348491373 0.0
103 1 17.748980165639573 9.37292940651556 0.0 -7.216133680737299 9.535771543917182 0.0
104 2 9.852590996459872 14.387675679321836 0.0 -2.680197599493412 -0.6612142543592019 0.0
105 1 7.391283677836061 10.894698999723955 0.0 10.392513397161023 -6.287002129512541 0.0
106 1 0.4547745467057221 10.622291662566708 0.0 -21.457010622276837 1.9951346074742913 0.0
107 1 6.269354484863997 0.3321136147705199 0.0 2.9775501799317636 -8.407810203066422 0.0
108 2 15.27338686594088 5.241487461845931 0.0 -1.109910421200019 2.609002873885751 0.0
109 1 5.562444393777795 0.27454386996183205 0.0 -11.779250032037165 -8.222042576742508 0.0
110 2 4.061255148178083 13.69006245390117 0.0 -9.013957031465203 -2.1941359691850337 0.0
111 1 6.088222464315184 18.393476117761786 0.0 2.416597954987705 6.486612677497567 0.0
112 1 12.003883452621386 19.472831639038375 0.0 -4.875247363829406 -5.072655394421412 0.0
113 1 8.773049960236387 0.07896677123011392 0.0 21.44732183480557 -8.993882811537414 0.0
114 1 3.1827410943965027 13.771360854441484 0.0 4.3667619082117675 -10.436148041296825 0.0
115 1 1.0404133943440217 9.575693065325236 0.0 -8.139198986268564 -9.194695288975334 0.0
116 2 12.474762396679882 10.075810704160665 0.0 9.971358835476176 -3.203945011150498 0.0
117 2 0.08995997576221093 13.43067803684257 0.0 1.284525634437508 4.172085067016979 0.0
118 1 5.986246994586954 0.8328634711673654 0.0 4.297184862870927 7.122534785113161 0.0
119 1 1.6959608924699312 13.935666889736513 0.0 -8.876110528238947 -0.41552361878038 0.0
120 2 4.50967222529514 17.431284560138526 0.0 -7.669484115418446 0.018405902566803665 0.0
121 2 4.210052482373882 4.658793785179312 0.0 5.452060010349648 -1.3831790344600416 0.0
122 1 17.027492523037868 6.82385981453108 0.0 -12.157295144034052 -3.764866123694638 0.0
123 2 16.74745142499753 7.771289583371148 0.0 -2.744228022305547 3.3882223656035912 0.0
124 2 4.001245444197695 3.1850938664297073 0.0 3.7007536011565736 -9.804493523272068 0.0
125 2 11.85214688243506 4.25286095350443 0.0 -4.303872281672404 -1.1674066364642075 0.0
126 2 8.636964031782197 5.199420936630679 0.0 9.635530788932238 9.67763787037373 0.0
127 2 8.973406338205889 1.1941614980086042 0.0 -3.399729586158536 -1.3660349310007727 0.0
128 2 8.95732912351727 18.42459618935375 0.0 3.133116312525395 -3.059579751052306 0.0
129 2 9.56194707598635 3.4199447483190846 0.0 10.447928937708143 -2.5917746362837746 0.0
130 1 12.720722547791876 12.015686370604033 0.0 7.273504334413334 -6.476208192960674 0.0
131 1 10.543189111550802 15.080424065340264 0.0 -8.369340141316508 -8.121527535319798 0.0
132 1 17.309211217996005 12.575006870614704 0.0 -1.17547030592584 -3.271688590298429 0.0
133 2 18.42982208618277 2.593865936284788 0.0 -11.801065528291273 -12.940262657379101 0.0
134 2 11.607392779995282 9.250854102480107 0.0 -9.56368619501518 1.8151695137662647 0.0
135 2 1.9243149000579889 2.119130042081313 0.0 4.219687287949566 -7.990927717981009 0.0
136 1 9.543243218256155 19.10007703043824 0.0 0.3873244982428652 -3.6016392067708827 0.0
137 2 13.340527008932678 1.8588659668931564 0.0 3.1700101421914844 -7.818680396578995 0.0
138 1 2.056762930537718 8.072850669692565 0.0 1.255152774926993 5.923883187108273 0.0
139 1 2.234855602482584 14.036737229322462 0.0 -5.508070922174549 17.77425687671491 0.0
140 2 2.1354123869059625 5.5588879471824235 0.0 1.1087303407360785 2.1616178419273195 0.0
141 2 5.507881401996138 10.39222606007055 0.0 -0.15801298298758257 -1.0381096142208146 0.0
142 2 11.153694715585443 13.901791875059741 0.0 4.54993396487712 -7.563382444296743 0.0
143 1 0.3136740884524953 2.2504352536309047 0.0 6.809216993359536 -18.224406246797727 0.0
144 1 8.297280777310766 11.343626201521419 0.0 -6.005837778837778 -2.9508309373397603 0.0
145 1 1.6772973900331807 13.50233131508858 0.0 -1.5955400652373053 9.956350928831007 0.0
146 2 18.935048398748883 13.453558003683659 0.0 2.4551994088641114 -8.945651530418173 0.0
147 2 17.129008181121034 18.676918803466563 0.0 -0.06066317499052371 8.313121509227086 0.0
148 2 10.250832876632638 0.4978623582828094 0.0 6.87047739739248 -5.984274221646436 0.0
149 2 3.7368532630458233 16.979761234838957 0.0 -6.9913133366027305 -2.665107686373673 0.0
150 2 16.072278185962144 18.495970473126086 0.0 3.695855497389296 -7.299458704780281 0.0
151 2 19.53732720450326 0.5360256414745469 0.0 3.0386794847077456 2.411489938809073 0.0
152 1 5.947212275358983 15.21488612446199 0.0 -9.08209765026354 6.955792726285647 0.0
153 2 14.856577687703693 17.89447125566911 0.0 -1.2634403427853778 5.591474459704806 0.0
154 2 17.76271202644764 7.502308726610159 0.0 4.6727182100739535 4.620400961015696 0.0
155 1 16.825951945047663 19.572842936585804 0.0 7.248072763122779 -0.45979295980034557 0.0
156 1 1.018259628153645 13.746061190552476 0.0 -1.7403407165205877 13.57459559239333 0.0
157 2 5.991389046954156 8.4679605365856 0.0 -6.840233515306332 -2.8520887127840413 0.0
158 2 13.887624582541722 17.273487228053007 0.0 0.48711233661181025 -0.9798646244302903 0.0
159 1 9.604081887998685 11.198701239047995 0.0 11.671419762583565 -0.3997933689925701 0.0
160 1 12.648833468191292 13.873767983402479 0.0 6.5385557526609785 -2.859235099487735 0.0
161 2 3.174608619697324 2.1428322367185437 0.0 -9.112352312643042 -8.532789506787829 0.0
162 1 8.984703662693336 2.5529889381287227 0.0 -4.744745557294053 -3.3857988107905292 0.0
163 2 18.303978225544547 3.809720198798006 0.0 -1.3646082527073982 -0.4266617734402995 0.0
164 1 17.10841735324628 5.340032186337255 0.0 -22.47593779647042 2.397924349704857 0.0
165 2 0.6884297478524338 4.660620199038847 0.0 2.3674677177071484 -10.019531019738103 0.0
166 1 5.2656429249768255 5.153068713743977 0.0 -3.288688788190257 -0.8158908628928707 0.0
167 2 14.526442980240173 10.51608429339268 0.0 2.0860958225589945 12.111070853607613 0.0
168 1 6.884659342164412 9.772775354241297 0.0 -2.0733319155611363 3.361885737332741 0.0
169 1 10.707846646687825 6.432669339001529 0.0 4.7263645208314 1.9357377177504824 0.0
170 1 18.87999614651114 9.686531614943547 0.0 3.073653656317362 -6.463650067392013 0.0
171 1 17.24998130054653 15.907823249079966 0.0 -7.045356266497629 -3.247365632952745 0.0
172 1 3.1944432784774386 1.0008232332818412 0.0 2.587125892547692 5.033170598347536 0.0
173 2 9.305736227788664 9.764439888623388 0.0 -11.361213690453582 -5.348007515107087 0.0
174 1 3.3703216392665345 8.91601516514906 0.0 4.1710604375750835 -5.782436151125161 0.0
175 2 17.79919293552549 16.88327574371421 0.0 -2.932920444647925 8.588754192997136 0.0
176 2 10.616035814940416 1.3805775731273964 0.0 6.629281097050796 1.3816013091598114 0.0
177 1 4.925218468743885 16.215352905220474 0.0 1.73820495945914 -5.546495529757545 0.0
178 1 11.36838171016704 16.74109052789169 0.0 7.643072686193929 15.359102641732598 0.0
179 2 11.014507601594634 12.52819955156995 0.0 -3.4499102785266738 0.01508205569297479 0.0
180 2 0.9168539315715909 16.21334796106933 0.0 0.8525383684449204 -0.7335543782321465 0.0
181 1 4.5907579835413586 11.635925048034876 0.0 3.7030693064075 2.1354678953579196 0.0
182 2 0.9706444212681127 0.6181116099863798 0.0 -10.845409042757653 1.226174332037156 0.0
183 1 6.250917641173454 17.371084558119303 0.0 2.1560769834131723 9.74713787789454 0.0
184 1 8.851947875209662 9.049070175768584 0.0 0.8111820199183667 -5.169323591291511 0.0
185 1 8.035639430460947 10.616009049857052 0.0 -6.553823950374445 0.007434567133157571 0.0
186 1 6.52150758484812 10.290496628504508 0.0 16.35044272557537 -3.9464211847496364 0.0
187 1 15.56300531736158 11.305556162624773 0.0 -5.503754869340153 -3.448488920202802 0.0
188 1 14.932915217251022 16.56503265240512 0.0 2.377491982437903 -10.491291030914123 0.0
189 2 7.3065464721689635 12.594565004025469 0.0 -0.9604626865010382 6.034512445106867 0.0
190 1 12.73935737172629 6.4125888589591 0.0 7.636587361664778 -8.809262835372323 0.0
191 2 5.090019925687319 12.432655030188243 0.0 -6.79920727808522 -8.563297263443086 0.0
192 2 7.726707106888011 18.37385239845889 0.0 1.6482326513195062 -3.7269357979235025 0.0
193 1 7.967851166319066 6.155771945625517 0.0 4.435129548250709 -0.3939061006820728 0.0
194 1 9.100122923063976 10.784230769634592 0.0 8.115027698371886 0.30225300142997763 0.0
195 2 17.368660466925693 8.644741860337183 0.0 -3.8963952364676473 -2.8293458572719294 0.0
196 1 18.262499004458167 14.073141651577183 0.0 -6.9508370035385445 -3.85791821038535 0.0
197 1 3.632318023069372 7.9392931517625245 0.0 1.2433872294751915 -1.8031854952855124 0.0
198 2 14.345426951980757 15.361199750420493 0.0 -6.113075255435236 1.393167727684155 0.0
199 2 7.221395005175571 3.8323101219693796 0.0 -7.635007908252871 -10.004585771244486 0.0
200 1 12.387887046315985 11.039708197290164 0.0 6.02577263426064 6.165532676582817 0.0
201 2 12.898515027052161 0.8895463306832744 0.0 -0.41223988038605225 -6.394579062994473 0.0
202 2 4.44440285367017 9.310403187030163 0.0 1.1311853024175522 10.360799694638514 0.0
203 2 9.648337682213842 7.962105311555251 0.0 4.168080213917602 5.023170564363682 0.0
204 1 11.282605114946989 0.689490646833165 0.0 6.7122181667623595 -5.0778744782972485 0.0
205 2 5.589313009209553 5.9704501118577 0.0 -5.839682275683523 3.9020587456236866 0.0
206 1 18.65901765985296 14.666790992130055 0.0 4.388342362979718 -6.782501394863573 0.0
207 1 3.800931913664677 1.7014907909033214 0.0 4.1171116330844235 -0.6267593269367155 0.0
208 2 8.121183157975072 15.540895587088237 0.0 -5.7423042676846645 -0.1527641726328613 0.0
209 1 7.561669808098708 8.231009391842415 0.0 -7.871789437680615 -1.7395406258752464 0.0
210 1 14.41061487666686 5.0197533618978385 0.0 2.9589395582628994 -9.922641320294456 0.0
211 1 17.654224051327493 6.020139686547293 0.0 6.956568733177267 -14.610496838811537 0.0
212 1 17.541513651104484 4.930558461845908 0.0 8.83680572316351 -3.4322396503800254 0.0
213 2 7.110205738336032 1.9385678113835847 0.0 -6.398075573227029 -5.742668103389272 0.0
214 1 0.5191284468615799 3.1966580192162315 0.0 19.85773834309996 -1.3156762622007447 0.0
215 1 3.0871036664510982 11.123126039637585 0.0 3.1947426290109413 -0.3545363955442716 0.0
216 1 11.403517210149738 5.4076728659830895 0.0 -1.1229777509133023 -14.074859454046107 0.0
217 1 6.1729612195053996 6.8609866995543936 0.0 -5.826895801247869 -6.292656872709216 0.0
218 1 3.9296825428792674 0.9135469126111802 0.0 4.208780013750333 -5.470017231067269 0.0
219 1 12.521165333108497 2.4149339099918765 0.0 -9.538398912585723 18.165419682857433 0.0
220 1 13.64658122779309 14.28998546448342 0.0 21.237686645049667 9.443041445399256 0.0
221 2 6.314319059343771 4.859296985949246 0.0 2.1756622739606377 -0.8952966970094791 0.0
222 2 1.1760945669587992 14.64002666834284 0.0 8.69400962790883 5.943695869408879 0.0
223 1 11.132327247825827 17.82701781719497 0.0 -0.7977779454827719 -15.687248783266448 0.0
224 1 12.262871257211051 17.927378451880408 0.0 -7.119682366989952 -10.73376341786367 0.0
225 1 13.260715349493585 7.777437077549282 0.0 -14.040584235040209 -3.9614230361436458 0.0
226 1 4.990364220520068 1.5698780450153653 0.0 -5.590799839847679 -22.66826143325699 0.0
227 1 5.903566181084903 2.5102406495054543 0.0 9.577328490347151 1.4138272024945644 0.0
228 1 7.311089365991991 0.636864540426612 0.0 -13.087295939147985 2.8443301720531684 0.0
229 2 16.443710403357805 0.6173144916966694 0.0 -2.1241320815741362 10.168782951233386 0.0
230 1 2.6654766708025943 11.47763851129769 0.0 -8.54162027876848 -8.26773217034386 0.0
231 1 11.856898035619663 11.882426213802393 0.0 -2.5034737297935354 2.118461847339418 0.0
232 2 5.221184724165502 16.95707835621656 0.0 -2.3882442414571967 2.9320724696220086 0.0
233 2 11.22327233348915 10.342883556576266 0.0 -7.3901627696687555 1.2521358629793862 0.0
234 1 7.144631971341338 8.732467500669317 0.0 9.582035315491492 3.720733578571376 0.0
235 1 18.778741130141242 8.352390370980498 0.0 15.575053327441449 -6.004960165784362 0.0
236 1 6.477529872380866 9.33689835034835 0.0 -13.518546500459417 2.623688483620028 0.0
237 2 17.183461141390655 4.0173357303518875 0.0 3.4565601574074485 -8.373366991684968 0.0
238 2 0.49789359355589324 8.537017983719217 0.0 -4.004159261491122 1.9390359999004274 0.0
239 1 11.318189890035004 18.3935481073058 0.0 17.41680056246321 7.86607128222852 0.0
240 1 8.589126228871857 19.285867035302616 0.0 -12.953723630706227 10.444500288679345 0.0
241 1 4.81590995643685 18.36906253987731 0.0 2.8830343501410036 4.67212201326516 0.0
242 2 3.5360277982488983 9.834513113819039 0.0 7.223034964588095 3.117752718134436 0.0
243 1 2.4664123797858903 10.517892400226396 0.0 -10.045063281154611 -4.695151393528283 0.0
244 2 19.34003226239355 4.163434934998759 0.0 -6.381165431922277 7.678124940580727 0.0
245 2 2.8465446496287306 8.086118574766067 0.0 5.252837319193445 7.391668284010654 0.0
246 2 5.911111712985166 11.302091544778987 0.0 1.1900913093448497 3.1060958887562147 0.0
247 1 11.08468758869894 11.520930580062364 0.0 1.1666622185126527 -9.92962466161169 0.0
248 2 15.31863471161553 19.61578102685078 0.0 1.208632872507802 2.1083577249867833 0.0
249 2 15.831633853839023 8.240040804181957 0.0 2.3900661940162244 0.35116606746372603 0.0
250 2 4.680213999648764 7.006961814290722 0.0 8.56339433308731 -3.1091720895006434 0.0
251 1 2.0184690093801603 8.64486648072001 0.0 -12.012237627186312 8.249324421212531 0.0
252 2 16.13049755048105 9.005282950677143 0.0 -8.076423033955692 8.097153013182288 0.0
253 1 16.618645677147416 12.912665450022804 0.0 0.16898858377126505 -5.99597723349721 0.0
254 1 6.8558154092665635 7.294678235448046 0.0 1.9647875244483854 5.139991491744513 0.0
255 1 13.739073768874366 9.123107435807716 0.0 1.5395391729259515 -8.7092621760465 0.0
256 2 18.62227137631537 16.28544979632936 0.0 -4.856792321112354 17.25536544680847 0.0
257 1 14.32781172950095 4.337441131894713 0.0 2.8089153993355747 -4.756299033069084 0.0
258 2 4.995475341389106 14.007257088070336 0.0 11.527693580534555 4.073424986154695 0.0
259 2 2.2470143633221227 17.52032524130602 0.0 -8.412631373545763 2.4493934413941476 0.0
260 2 13.3712687062045 4.3221260956076915 0.0 7.071881653284313 2.1997670765677166 0.0
261 2 3.0600773777919756 14.58001781605382 0.0 3.0147042522181136 -4.514373336683736 0.0
262 1 16.692519012628438 9.549197283576278 0.0 0.39418565702515207 -11.460556730042322 0.0
263 2 19.415325942334363 3.18635828801067 0.0 11.868168085702248 10.647733242015923 0.0
264 2 10.65552119607935 7.910754850689428 0.0 -6.36257137851294 11.789089974478765 0.0
265 1 6.060983865955311 15.909141069679105 0.0 -10.454229190949578 10.073606930923045 0.0
266 2 17.407334775763026 13.367480726590625 0.0 -5.650561565049185 2.225220326332874 0.0
267 2 18.338511906538777 12.763878013867636 0.0 5.62230131687463 -11.38717813020627 0.0
268 1 15.187839912131677 15.802691328248088 0.0 7.26631189866951 -7.303973318580134 0.0
269 2 7.248562547663025 17.236487240542267 0.0 -7.913666364263625 7.326819613966303 0.0
270 2 18.610855234624545 18.789534393849507 0.0 3.768830188784643 6.521306314125026 0.0
271 2 7.585494179991136 14.478287235677984 0.0 -2.6262444796095963 -5.849552661309466 0.0
272 1 5.181285184098208 19.690704895847226 0.0 5.201700867303929 7.755252417091664 0.0
273 2 13.13418709023692 19.65889142589558 0.0 -11.769751909155213 0.47851658124178814 0.0
274 2 15.669887177596426 12.856987924310326 0.0 -3.494799256808075 -1.1266574652288925 0.0
275 1 3.9668345417718798 11.216531470040506 0.0 -4.293644121726129 -11.548996648473711 0.0
276 1 14.979436710778492 13.347984583511813 0.0 -15.55676345160692 -3.132766164255732 0.0
277 1 0.679503079128671 2.5449650572756495 0.0 -3.1367127633507663 -6.165955617234522 0.0
278 2 7.713015907298863 7.033873862499422 0.0 -9.091864297620758 -2.697441251664986 0.0
279 1 11.949938436155872 12.412658512101276 0.0 -0.21622088077544882 2.172208867533286 0.0
280 2 3.651652984969191 15.851350287964335 0.0 -8.345831766404064 0.049592343124651904 0.0
281 2 17.530372449028683 0.7925662754680295 0.0 -0.34277008130101144 -1.1962143165002759 0.0
282 1 4.530296249672336 5.9521445072329815 0.0 8.192859077759609 -0.4197987852734684 0.0
283 2 16.346693576869452 13.655054084736408 0.0 7.814265934673273 4.7083848798635355 0.0
284 2 8.292930697219385 1.8687635836940042 0.0 -0.031216403316425157 -3.5565276522198492 0.0
285 2 9.03070015151402 15.382396335127282 0.0 8.30713697387513 -6.249108040492592 0.0
286 2 0.004259156311198392 5.133838283174918 0.0 -0.641917924838516 6.385599967221477 0.0
287 1 3.9365571755043987 19.675771412246583 0.0 6.5002121893897975 3.140405416121838 0.0
288 1 18.201341355279407 15.33347000565407 0.0 -4.911160403396787 17.733225708770348 0.0
289 1 19.004291348287346 2.1982019079624586 0.0 -1.7005893739242008 -3.8590704983286908 0.0
290 1 19.569575017771257 1.6064992565559235 0.0 6.9196244793467665 -4.151890163304428 0.0
291 1 8.592004383291767 16.298761626896884 0.0 7.08717873689323 -22.21396506424778 0.0
292 2 4.777223012175971 3.7911044513726524 0.0 3.255103266199935 3.9973859912310945 0.0
293 1 1.2018092295071492 3.5938506479039534 0.0 -1.3459318843255665 -0.9714098314074213 0.0
294 1 8.806052707442717 6.610796207212012 0.0 -3.5049039192261167 6.8127734256331705 0.0
295 1 18.87309610588293 8.951472343597533 0.0 4.427850832762673 14.850936611867974 0.0
296 1 15.607656760112597 2.7106594756956084 0.0 0.7810603864138529 -14.629720690972745 0.0
297 1 12.793371806082511 9.179097604392705 0.0 2.386267759755915 -0.07012478437099856 0.0
298 1 10.50007641429086 5.505788726965352 0.0 -11.58640487947966 9.335432712940243 0.0
299 2 15.49469429956713 6.92861813209061 0.0 3.2857267213140653 5.100492041393713 0.0
300 2 13.618509596789794 3.0691051769333337 0.0 0.529544313730549 0.15196864739116228 0.0
301 2 15.105328307658475 9.120310590875588 0.0 11.998569136726411 -3.116222308708382 0.0
302 2 8.205525441996238 7.760935334679324 0.0 -9.966098278226372 2.222918239614996 0.0
303 2 18.687605504206864 1.1915534422896124 0.0 -1.1102287846607148 11.935701052413442 0.0
304 2 8.501125502882712 3.5795430838888214 0.0 -7.269459668783491 1.648147018205218 0.0
305 2 14.761407359345105 11.411315124374573 0.0 -8.045596638227122 3.3969102047784108 0.0
306 2 8.748213978665484 14.437963903259327 0.0 4.529446260415568 -3.9982984169159126 0.0
307 2 10.557051130209588 18.878436604513094 0.0 -6.810938661172794 -0.21959747926330664 0.0
308 1 6.554699392098608 2.667862205150414 0.0 -4.5883116801497765 10.460897825475588 0.0
309 2 0.26623894855297703 18.866287818341046 0.0 -7.664823482295395 1.8863571900374312 0.0
310 1 5.098205844816926 0.46222849600395366 0.0 -10.203538320829733 2.404110993767355 0.0
311 2 10.497253241938898 16.137058439825715 0.0 -6.3607171252398595 -2.015250739700437 0.0
312 1 2.8462518033684105 19.36285148151064 0.0 4.356516935978734 -7.412046951913771 0.0
313 1 2.3058001315129566 15.070436313912708 0.0 -9.816271904296174 -5.152422160014388 0.0
314 2 3.9812933075639134 12.125955578774132 0.0 4.9729984981488276 0.4467315830802833 0.0
315 2 11.900988411765708 15.053043130265781 0.0 1.5361041983807142 2.1091981667879707 0.0
316 1 14.596107022798552 16.852997230551356 0.0 -14.888161532156442 -3.8801449796591743 0.0
317 2 19.362676980057994 16.62769433472291 0.0 -1.6050571671597518 5.0305795023496644 0.0
318 2 14.165190446032167 0.19960939784847545 0.0 -4.151654903773858 4.445254353983534 0.0
319 1 19.640167719054485 15.414462668626351 0.0 -4.758686723376014 4.245751224131994 0.0
320 2 7.714619547076688 19.530815554257504 0.0 -5.666437161177417 2.9409985417368945 0.0
321 1 1.9778842488724038 11.923259658891832 0.0 1.480855628710521 -2.1561496647516774 0.0
322 1 2.885654850036791 5.993285566897165 0.0 -3.294570981829807 -5.781265188248007 0.0
323 1 10.572777531884082 17.393319635007444 0.0 -0.4451533299803861 18.517335878420855 0.0
324 2 19.71956122078868 12.30441167737535 0.0 -3.2218457990692766 -7.816705727841985 0.0
325 1 15.57060043788833 2.279964936899293 0.0 -8.654145101153933 -8.46025748647071 0.0
326 1 6.048065438628195 3.0934154531288214 0.0 6.071781919066546 -11.159016425675654 0.0
327 2 18.09652509938576 11.467354316490878 0.0 1.5447142056973122 -8.643320281914098 0.0
328 1 16.794140060653948 4.911803710474599 0.0 10.615555373609046 25.715136899623392 0.0
329 1 18.914770890105054 11.916366184521825 0.0 -7.9973087004616765 3.9339638414285494 0.0
330 2 16.522298963046918 2.260233703856816 0.0 4.774857630847227 -7.526571485863791 0.0
331 2 9.97711172006701 4.3196397877699155 0.0 -1.8781224216649832 7.5879561196007055 0.0
332 2 5.522971629490389 7.748239362179815 0.0 9.333333917534258 3.3842369323715222 0.0
333 1 1.9708989372852592 9.671745892177984 0.0 4.231739920921645 -1.3063030652942593 0.0
334 1 16.55834691240251 15.163450734670844 0.0 -8.513722825992794 -6.928583345271771 0.0
335 1 0.41179215871542746 10.106071634017505 0.0 1.107798612979132 -19.134239080509335 0.0
336 1 4.366288817682311 8.430668396961865 0.0 -11.99647460211426 -4.521897711447897 0.0