ITEM: TIMESTEP
0
ITEM: NUMBER OF ATOMS
400
ITEM: BOX BOUNDS xy xz yz pp pp pp
0.0 19.7609 0.0
0.0 19.7609 0.0
0.0 10.0 0.0
ITEM: ATOMS id type x y z vx vy vz
1 1 17.180716752979496 16.3250882207336 0.0 19.993433593754673 -2.357109133838851 0.0
2 2 18.840017343180403 11.15275094861114 0.0 -12.636726255902142 2.813094789837151 0.0
3 1 17.298805187665653 9.68250857164129 0.0 1.9175906873339315 8.666399066627925 0.0
4 1 16.184177693915988 19.52811197768838 0.0 4.535016935940164 11.842883127152477 0.0
5 1 10.637823277961 15.520870876142393 0.0 2.4498647992547666 3.5584023362914414 0.0
6 2 13.687492722179309 7.891589923153727 0.0 9.092760412875995 6.744827322246023 0.0
7 2 1.5612647757300568 17.16438824790772 0.0 -7.873672092391333 -9.132263833831647 0.0
8 1 1.782085056501647 10.187568688592522 0.0 -3.097090849488001 -10.053704285711659 0.0
9 2 0.6139322504939568 2.491460580238523 0.0 1.0735743321962876 5.897712229485766 0.0
10 1 5.819561808396492 10.032842229491191 0.0 4.458738569496584 6.101290070754222 0.0
11 2 12.917559531112659 4.136077854929042 0.0 3.508176775571617 -1.8660383299240402 0.0
12 1 3.788699626263711 12.860761961456992 0.0 -4.313717781827958 12.23288591038424 0.0
13 2 7.571302691659309 6.895003753682563 0.0 1.282596097505867 4.490719946084982 0.0
14 2 4.591883689515016 11.259157945958977 0.0 -2.3690558665434063 -0.40205315058441904 0.0
15 2 14.75683494994452 10.75393465352096 0.0 5.971691683641637 -2.0347239108800705 0.0
16 1 13.393884861840286 12.791570237853826 0.0 13.356403545807943 2.6587660187047013 0.0
17 1 10.057654289473808 7.946779244454137 0.0 24.67050139392036 -6.809018561752752 0.0
18 2 18.25095749029568 12.86312254740178 0.0 2.256661471438753 3.3527547427571522 0.0
19 1 11.776678767594337 12.490401772722901 0.0 -13.47337797347367 1.0425295207320302 0.0
20 1 11.410423236960966 0.2707976858337442 0.0 10.880420054467006 -7.8104742046650575 0.0
21 1 6.424618681089395 2.1254077632869457 0.0 6.365475590922287 -3.083674074334429 0.0
22 2 15.180412096798612 3.165125067486077 0.0 -8.709643153945692 -1.038400096688307 0.0
23 1 1.3379698926872516 12.205652471580864 0.0 -3.5742173703605693 7.496036607808488 0.0
24 1 11.159753272070315 18.654522991971366 0.0 4.83955958652617 1.3470297038282364 0.0
25 1 19.597955729505962 13.704779523936796 0.0 -14.97624408028742 -0.556209408374966 0.0
26 1 4.546970269430798 19.651548129809584 0.0 0.23870847697934997 0.5669912545217667 0.0
27 1 11.907271251791363 5.8919428543117425 0.0 11.992142482261485 -3.3161139779692497 0.0
28 1 3.940830135931004 12.122895185196104 0.0 3.1141645105367077 3.5988795514538015 0.0
29 2 0.7642498382178268 3.7443805614028403 0.0 -10.797196595923543 8.577970356426913 0.0
30 1 16.450186487583245 3.5915513158278602 0.0 12.399367398099784 -4.082053162255855 0.0
31 1 11.5698517774646 13.956524145565778 0.0 -7.921255755408197 14.571816765499081 0.0
32 2 10.612224223463269 4.89639113988862 0.0 3.689830415004424 -9.203335159606398 0.0
33 1 14.17843953800939 9.99736170684186 0.0 -7.675374795892643 -3.019134333193759 0.0
34 1 18.87590043446162 11.935322626665805 0.0 4.599347825397988 12.724564586874651 0.0
35 1 7.5616227573896255 14.50292971151276 0.0 -10.663231465880534 -10.955743408119533 0.0
36 2 5.996550003312667 8.651662870640928 0.0 0.5163280868631082 -3.7243460785253077 0.0
37 1 12.155463701155526 15.442140651972277 0.0 4.737709707360855 -4.2430998745213575 0.0
38 2 3.730087634194712 4.102486568793089 0.0 1.8749435723660515 1.9795954533115314 0.0
39 2 19.17375678024415 9.389475404957366 0.0 -0.5650867095415435 6.409016176511714 0.0
40 1 2.383035163139458 3.1117111537472044 0.0 2.145880954463833 -23.605077718227996 0.0
41 2 12.509754584448594 16.35884086822247 0.0 0.9180786902026316 4.2721863671588105 0.0
42 1 16.53759468737854 11.039195846707551 0.0 7.492601272392085 12.021872585655487 0.0
43 1 7.457666053310373 2.940268849654451 0.0 -12.062330848267775 -5.618197476555776 0.0
44 2 6.3231478644898 1.1697321618165835 0.0 -1.4903471498300085 3.8751690672497117 0.0
45 1 10.879130905872813 2.072572216318326 0.0 -14.58087335076444 0.10976430982736643 0.0
46 1 17.794892736187652 15.005704576230661 0.0 4.019517025494595 9.299466727876448 0.0
47 2 4.70380558203812 4.199047170009078 0.0 -15.009254473670982 -2.074943624188825 0.0
48 2 3.573868886261747 8.213833968996529 0.0 -2.5915759057395906 -11.610727290451822 0.0
49 1 0.6371992328827747 17.07098105846779 0.0 -0.5834709824977855 -4.067137252665777 0.0
50 2 15.938579013326436 1.7704215747271128 0.0 -2.359366041735203 3.2730055665356526 0.0
51 1 13.225374954792631 8.727298938411812 0.0 -19.596272896395885 -0.0711994094140331 0.0
52 2 18.753574483518246 14.67732223503322 0.0 -3.516573098479386 -4.439179425877046 0.0
53 2 10.756311573145208 5.957607275356632 0.0 -6.982457911600023 3.836227038334138 0.0
54 1 17.257173688487015 15.007172592808741 0.0 0.069176606451269 -5.150195423580187 0.0
55 1 5.092999410788072 1.50091546940299 0.0 4.904433040364072 -11.040550597510236 0.0
56 1 0.3703699501216067 13.564180679723334 0.0 9.962684703731892 6.518331716801457 0.0
57 1 19.64046467211876 3.706908214030288 0.0 -6.002104172232507 -9.601044951706097 0.0
58 2 17.728428202187953 17.394512245328947 0.0 2.8717512469453044 0.4466285461774414 0.0
59 2 11.88273967902787 4.313258076047108 0.0 0.6872946996365514 2.9086605696205035 0.0
60 1 7.248210580383187 10.796711409464702 0.0 3.8924406137807344 -15.120507359893864 0.0
61 2 15.332546714947728 17.39230645484875 0.0 2.8466234913239905 -3.3290896329122557 0.0
62 1 10.41236106729494 19.597263883855707 0.0 1.8764834873276715 3.0007922223034416 0.0
63 1 9.24192937735015 7.1571091637990705 0.0 -3.8451467118546816 14.514815892357664 0.0
64 2 2.966208289163143 13.702652125857407 0.0 0.04071357895345125 2.1182445534017713 0.0
65 1 3.9761610178716302 13.634411432678865 0.0 5.5313209347983925 -3.0825291537580872 0.0
66 2 6.684666732871921 7.342215414083864 0.0 -6.969936151189918 10.661117040995281 0.0
67 1 4.321709782318456 13.213542288229077 0.0 7.218756416318789 2.929529744973459 0.0
68 2 6.796716446525541 3.4577233810813537 0.0 -8.110031899481854 0.4327933075076124 0.0
69 2 12.7278148586909 11.194473286644092 0.0 3.9719370720229774 -8.828356525475062 0.0
70 1 6.468864910113305 9.723378724309816 0.0 -0.014977236202037716 -1.425246061188399 0.0
71 1 12.597730374499106 12.794634097493079 0.0 5.3167475128830635 11.890029445218541 0.0
72 1 17.1241021206888 8.056160035640506 0.0 11.09601564647396 3.0314465380257167 0.0
73 1 12.914518734265892 15.491578263518862 0.0 -1.6961478119467313 -5.6033344853877445 0.0
74 1 9.326251045557406 2.709740500108504 0.0 7.895336953214821 -4.786648928987912 0.0
75 2 9.906019340708646 1.4760565242338024 0.0 10.90829333492253 1.68381216236757 0.0
76 1 15.331653864953063 0.26256484415982323 0.0 -2.4918187938707237 -7.763372146446292 0.0
77 1 18.503581174370918 3.7180131146027513 0.0 9.137411853977396 -9.367025100675718 0.0
78 2 18.19691307562854 5.65111733220291 0.0 2.764325010771885 -0.5272976949114142 0.0
79 1 7.695151376529342 18.2919630397298 0.0 -15.498186308665366 -2.349856528965154 0.0
80 2 12.77112886196206 1.952355097409696 0.0 -3.883427454147708 -4.21578539438714 0.0
81 1 3.0117623562752236 17.648939799173963 0.0 5.651143510124658 5.136043543519178 0.0
82 2 15.41346567246273 7.183121526786753 0.0 -1.0274241481427409 -4.7125637910503935 0.0
83 1 11.717531546745512 18.71332523389402 0.0 -5.936378023166025 -6.584174049153453 0.0
84 2 6.925511426145393 8.909242079309726 0.0 -6.984727762895427 -1.264683578205823 0.0
85 1 8.107235927403714 5.54507954464367 0.0 16.703737831106633 6.8352760989160695 0.0
86 1 6.831411443920263 15.711207750494571 0.0 18.70127142676326 -6.036348018974525 0.0
87 1 9.618396332299742 19.60447564566395 0.0 -3.271456534839574 1.4541808844174489 0.0
88 2 0.10703529962646562 7.347019363860079 0.0 -2.9995840526934967 3.0141013272453234 0.0
89 1 0.04073889810268866 3.2638063758227633 0.0 10.441397432958002 14.98617950488825 0.0
90 2 10.595997118496888 16.656149957105356 0.0 8.899244825071333 5.643025424365937 0.0
91 2 19.70746839916556 10.327848157383247 0.0 2.5264286483635923 4.391457919351795 0.0
92 1 17.368859180962723 5.9869693224345815 0.0 -5.644383748850055 -4.006864907415871 0.0
93 1 3.4482743139607006 2.2707099967273656 0.0 9.036809318973457 4.593951425043188 0.0
94 1 9.026183299465037 4.34453195452506 0.0 -10.613882112355752 -13.772033944481477 0.0
95 2 10.85619983531299 12.360164652766677 0.0 5.354364916794618 2.8070263683106753 0.0
96 2 18.986255607160174 1.1103378639458532 0.0 0.033211045913833455 1.7323538386925776 0.0
97 1 1.296722626697009 11.483775583741577 0.0 -5.249215621750469 -3.182054382629709 0.0
98 2 4.730886234069517 5.243954980647931 0.0 -14.386167912411576 -0.6308307384051067 0.0
99 1 9.38614662582181 5.206867489196733 0.0 -5.544758232008784 -0.6146121347846263 0.0
100 1 8.181510660521436 12.749809597601335 0.0 0.15432968668771832 -1.0265098940901305 0.0
101 1 1.8947962518837491 13.70463214377237 0.0 -10.858290229056033 4.8363352754775075 0.0
102 1 13.741196084335972 18.688730041807233 0.0 -11.93339950338063 18.58538811918565 0.0
103 1 1.9334640709501463 8.046128187002061 0.0 -18.089675382864744 14.49745075411216 0.0
104 2 4.970398174863401 17.722421696133413 0.0 3.021308441533795 -15.141893622322707 0.0
105 1 1.1662431641459203 0.4775840237955678 0.0 -6.967837106665251 1.6497370160876639 0.0
106 1 11.617010375423847 16.145315208425757 0.0 8.283554627266996 0.19543894414275764 0.0
107 1 3.0225131207336293 4.7411616298485715 0.0 4.532846296602023 18.963625321877462 0.0
108 2 12.955717457985335 7.295811365764238 0.0 -1.4336939275785747 5.3936162186885435 0.0
109 1 18.207719434027855 15.31226413574297 0.0 2.3879477927872594 17.74399104876408 0.0
110 2 7.572394555679814 19.235848488525374 0.0 3.7625628615309363 -1.4912928075508678 0.0
111 1 15.872777653643693 11.613658594751655 0.0 -4.750543429870165 -7.026045365656842 0.0
112 1 10.502657362814775 14.605286894537606 0.0 3.6770296658378423 -6.810424049066467 0.0
113 1 11.813919940057794 14.705443612225393 0.0 -8.3753009449938 15.29450539780295 0.0
114 1 5.212776622601071 8.999442564755496 0.0 12.505146827492974 -6.634565713490325 0.0
115 1 8.336719786100765 18.15991738288565 0.0 0.31613445402320034 -11.687608220938051 0.0
116 2 14.21571015973209 16.176025635831916 0.0 -3.4635189562357622 4.507420863932733 0.0
117 2 12.740150506714464 3.2038001543922383 0.0 -0.6940571106953697 -3.7312452879153004 0.0
118 1 13.23083706647343 10.482291916281541 0.0 -10.07173165973615 6.901251278691148 0.0
119 1 9.398192153989436 6.495992213431428 0.0 -9.783972064795904 3.1543327666813847 0.0
120 2 3.782546717173611 4.993532008067354 0.0 -5.320827693375192 -6.049287524996726 0.0
121 2 16.190632339036583 18.298623507284848 0.0 -2.917026377077635 -0.4565555141132859 0.0
122 1 13.81968764724921 17.844689787885073 0.0 -9.359482145609341 -0.5779629122723114 0.0
123 2 5.583173704703752 13.256410628351887 0.0 -2.123634910698985 -7.315178948426871 0.0
124 2 5.6138606729974745 10.98711057400709 0.0 -0.7871883695309744 -4.133893510229095 0.0
125 2 13.734461860252399 14.963778660789892 0.0 -2.700275551273721 7.563840505315852 0.0
126 2 9.443920465742774 11.741439064677758 0.0 3.4839723223876646 -0.4594069033803332 0.0
127 2 17.452682665752505 6.7550682894429315 0.0 -6.452915473883703 3.0101776895817447 0.0
128 2 7.869603244497811 9.137535134972657 0.0 -7.48810561202661 -1.6434131199590376 0.0
129 2 15.725310263299237 3.8434532025329258 0.0 -5.768527389263945 -4.470728819875266 0.0
130 1 14.363761818105612 8.40508620310653 0.0 2.077641827730989 5.711442150808055 0.0
131 1 2.6019417890494956 16.470534624782687 0.0 -4.03129542781389 13.380647466230187 0.0
132 1 11.901899145066698 0.9372671892675909 0.0 0.6728767686489541 -4.227815972065818 0.0
133 2 14.38489639229443 13.655407970978017 0.0 -2.002470408977739 -0.9572457170163591 0.0
134 2 6.806708811106997 5.958648435825414 0.0 0.2160393151829327 0.8450775667082817 0.0
135 2 17.13882529734271 0.25862262187898427 0.0 -2.4019391665421144 -3.5703764143513914 0.0
136 1 19.488624299600996 8.36343322219231 0.0 -3.6194580394949916 8.646410921714693 0.0
137 2 6.348230388441876 12.252761938448224 0.0 -3.6362559062928614 -0.3875544090718086 0.0
138 1 6.419032222390706 13.82218724316353 0.0 -9.189198055767205 -5.888295118541498 0.0
139 1 6.6321280088985155 10.269247138912222 0.0 2.325203817936533 -5.878807722842156 0.0
140 2 2.5127954179347918 10.850268036595196 0.0 -8.112543203712782 1.119293349294662 0.0
141 2 0.1237323073222942 4.792070937766582 0.0 2.3356174011989363 -6.578248479823135 0.0
142 2 1.2362568172787487 15.126182420810828 0.0 0.7472130240739708 3.1281649299284666 0.0
143 1 14.752294204528027 1.6848690677404126 0.0 -9.628700342783572 11.332712847140902 0.0
144 1 1.6485125455801908 8.743028497685184 0.0 13.746221838585893 4.445185181357835 0.0
145 1 14.669880075852799 14.659366503640063 0.0 5.97696481199558 -3.144724465957979 0.0
146 2 16.978415854926887 4.7162420446976965 0.0 2.280496706777912 -6.562228521613182 0.0
147 2 10.373488162481477 11.665325135880517 0.0 11.06356971942281 -1.8348424898426459 0.0
148 2 7.256438283521101 13.371665955444593 0.0 -5.3592435608363145 6.562588011980015 0.0
149 2 2.594667826511113 12.955494569356686 0.0 5.340898723944529 -1.6675227583537273 0.0
150 2 7.049830199374809 8.033344247035721 0.0 4.151412614254834 -4.444903581595641 0.0
151 2 0.8824382003416332 16.00639170039759 0.0 -3.641742794092568 4.016469622319996 0.0
152 1 1.6110523696837225 11.12069573166762 0.0 10.527745275849103 -8.409945624498144 0.0
153 2 6.970425758273867 0.37816102242334093 0.0 13.039941581634464 2.040160092344444 0.0
154 2 9.990715582300291 9.2899448003716 0.0 4.176217353553608 1.8504274267716365 0.0
155 1 13.43379482394772 13.413595350363611 0.0 -5.492859116765709 -3.6366781862490103 0.0
156 1 1.190271031511393 10.284291210897566 0.0 -5.104512709304937 -8.71983901774636 0.0
157 2 11.757000761187498 1.9937942301925218 0.0 8.93005606060592 4.505516220869665 0.0
158 2 0.6435062834607534 19.00563193717892 0.0 -4.053621708293051 0.6869089090592507 0.0
159 1 4.756296188498143 13.590712550109277 0.0 -3.978285400631669 0.417509077201926 0.0
160 1 0.1775896114230361 16.584898961143487 0.0 -9.280748443779224 -2.594969200864975 0.0
161 2 15.214595441932115 18.28293764101833 0.0 -3.688349031661642 -10.190875923151024 0.0
162 1 1.1818318263101155 17.98011943725394 0.0 15.820909682641227 1.3257137397599579 0.0
163 2 6.753019919146839 16.95925230061555 0.0 17.669180528511184 8.51397568043828 0.0
164 1 6.622177665823008 14.369936716462734 0.0 2.92934929875026 -5.096279633668292 0.0
165 2 17.6895031548115 11.024297928668604 0.0 -9.426011565227993 2.4914948526588097 0.0
166 1 17.803553763945388 4.818451846274698 0.0 -0.21907374581152916 -15.251674871735903 0.0
167 2 4.829781216098923 16.150782555148403 0.0 -11.062089182095683 7.267191613991987 0.0
168 1 8.762904677738543 10.402604456926836 0.0 18.57740540708695 4.485252929509165 0.0
169 1 9.098424366426096 1.8065421400085615 0.0 6.646450878475435 -4.050831858381652 0.0
170 1 1.1508103027132044 12.80035808282241 0.0 10.664726877018508 -10.597299364884908 0.0
171 1 2.530800416621766 9.991898336154023 0.0 1.9067158485283024 -6.370354899006426 0.0
172 1 15.514024528227232 10.555419356635337 0.0 -11.254259512467442 0.3216687817002693 0.0
173 2 15.295016863021468 9.823909221988279 0.0 -2.3355393240685367 -3.896581667053703 0.0
174 1 4.4014151755344635 8.194629392204126 0.0 0.5590858254756012 -2.3089813773171444 0.0
175 2 6.935019977381181 18.210439549752085 0.0 -8.510381898009738 8.741279832417495 0.0
176 2 4.021147673925795 3.2318787750098954 0.0 7.177571131522893 -4.084900602589766 0.0
177 1 18.623649702222636 0.4114155652213429 0.0 -17.174734880185834 -12.89980714382625 0.0
178 1 4.826005939064283 8.702452758242494 0.0 -11.196474485364519 3.525927985234186 0.0
179 2 14.933945244094147 11.634115533497258 0.0 4.647726217977732 3.648902101006724 0.0
180 2 8.333775726835588 4.803971879088464 0.0 2.0566248712672155 -3.867824227057879 0.0
181 1 2.7369478069651874 8.259291789541901 0.0 7.923646506537081 -5.410383443195913 0.0
182 2 18.703648816180202 4.760348433055694 0.0 4.261144007757227 1.6557815348739426 0.0
183 1 3.7272151676048293 1.0515227426680016 0.0 12.871239570472268 -21.794549778541622 0.0
184 1 9.370939370786 16.997904167932244 0.0 1.2896404104658419 8.437497411146323 0.0
185 1 15.82146915371374 2.5783374507151735 0.0 3.561113496598934 14.120682223311471 0.0
186 1 3.2347175143227758 9.421004310814023 0.0 25.86205330810648 -0.2631628438303612 0.0
187 1 15.764375369228997 10.937990626853363 0.0 4.806368706424775 1.89109481848165 0.0
188 1 0.7920658645576936 0.10488087566197714 0.0 -2.642639954270216 -3.992012951676117 0.0
189 2 3.398099257511915 16.32276091063644 0.0 -1.2255133380673997 -7.01581016169972 0.0
190 1 8.911491102174072 15.064591616726258 0.0 5.8083842352658746 4.739510675986182 0.0
191 2 18.006917456145114 19.1138159142157 0.0 5.146768959335132 3.1177583608693906 0.0
192 2 18.553109138462336 7.724246881478901 0.0 -0.3217777321093883 -5.620799719870191 0.0
193 1 12.172413341017803 11.709424040067649 0.0 13.897865918592474 9.699009322453872 0.0
194 1 0.16709923723116213 12.742125790962717 0.0 2.2279661505329407 -3.2389581277020625 0.0
195 2 11.56228031364261 9.540526272722069 0.0 8.7649400516305 1.140925277974794 0.0
196 1 9.30008084955553 5.703441748708567 0.0 4.2893989715869765 -15.645864694262457 0.0
197 1 7.249581056625416 10.298510215579626 0.0 8.40164297066336 12.941481410673543 0.0
198 2 17.361961491681296 13.083883943832655 0.0 -5.068914224845897 -2.6779022625297633 0.0
199 2 5.849037902290273 5.119864590773551 0.0 3.972469746247078 2.7259858274497364 0.0
200 1 4.493072008151841 16.959008603117233 0.0 -18.600496110660252 5.535774097114633 0.0
201 2 4.942160178963252 2.3418341662774576 0.0 8.264340978274623 1.7185463894888464 0.0
202 2 5.489283347966053 0.6236518339151197 0.0 -10.999724320138874 -1.3141657420267892 0.0
203 2 16.88850008897988 1.7195828182482435 0.0 -4.236169587898553 5.281161022276105 0.0
204 1 14.923334137765183 13.043241638975287 0.0 -18.539898481209356 -13.107191026213298 0.0
205 2 8.444532359524473 3.3661109063474113 0.0 0.9879708563331988 11.79786919029439 0.0
206 1 4.233541413476243 15.365283598266084 0.0 9.735293999110176 -6.404180371509604 0.0
207 1 16.322689894435015 10.37462322331497 0.0 -7.402773694032642 -12.583614446747491 0.0
208 2 13.610431920694152 3.6904805930724347 0.0 -0.23684996551463938 10.053520972720884 0.0
209 1 11.478181170601188 15.584007832158306 0.0 -17.382202092476575 -10.28008417040374 0.0
210 1 8.004433773622177 11.047387652880865 0.0 5.713924202217487 7.266102839377026 0.0
211 1 13.808566019084457 1.2592129675040487 0.0 1.5186858891949415 -8.738717632123706 0.0
212 1 4.371507250887174 18.54634853804394 0.0 -24.03047390629449 -10.545282166353392 0.0
213 2 9.122093810091727 8.664950028705233 0.0 -4.014994208593609 -3.242603139839245 0.0
214 1 5.486614807634013 18.551102006328946 0.0 -9.766959298192146 -1.4518532332438443 0.0
215 1 1.6521246531693499 9.302825348312327 0.0 7.2737282696118 8.232957469049001 0.0
216 1 11.575555857339445 18.03190117949034 0.0 11.617665867776209 0.46004362540904015 0.0
217 1 19.727297761439434 14.486925425455421 0.0 4.447221531865139 6.771280385630657 0.0
218 1 10.680235586635796 10.940083045375053 0.0 4.08319170091325 5.928997185757547 0.0
219 1 4.339995034670899 12.394983548074245 0.0 9.39233875241611 21.638585415738557 0.0
220 1 8.747907585512857 19.369830153669078 0.0 0.9570675220322133 -10.603038974674506 0.0
221 2 5.936807173486987 6.2498674197681 0.0 -3.564084529253942 -0.9773493502582722 0.0
222 2 15.93626491435743 15.557846264475447 0.0 -2.9056865142316877 -1.435850167334321 0.0
223 1 8.262766125431893 1.827416907345251 0.0 -4.153527008129675 -4.991971257438801 0.0
224 1 8.743069983878076 12.942944111191167 0.0 -19.79673529349921 3.704361687172839 0.0
225 1 19.296634584413223 19.238676026652275 0.0 1.112211486112965 -15.412559692942768 0.0
226 1 7.675856113727793 2.3588200145663145 0.0 15.373944229154196 4.639259224877624 0.0
227 1 8.764237392731516 0.30726767675459066 0.0 -5.7361726383154235 -9.754970417979532 0.0
228 1 13.215692143043505 12.019849678373742 0.0 9.809087716851517 -14.323291818709379 0.0
229 2 8.94906668873603 14.269491169025207 0.0 -3.4905761351168243 2.3934133846217804 0.0
230 1 12.99530249603118 14.449015979059757 0.0 0.6699430952329078 -16.164948174409336 0.0
231 1 18.996585282643764 15.66487389956808 0.0 1.1221503442565108 0.41539769542037547 0.0
232 2 14.995529218752388 6.428692600501816 0.0 -7.91394540539195 4.742970416757663 0.0
233 2 1.9023935603721631 4.391106058176387 0.0 -8.029312667534773 -7.471925646741534 0.0
234 1 13.479707593656554 17.49399734493479 0.0 4.686201013419036 -10.531169445322893 0.0
235 1 10.80761186805651 10.354962753943733 0.0 0.05756385333293799 7.992205066348233 0.0
236 1 2.2534893220543686 15.434948673142186 0.0 -5.170004625324312 -0.3403358976524526 0.0
237 2 3.4113367971191044 15.292083278500508 0.0 -7.629166802341048 -3.6278007382049706 0.0
238 2 5.510408159175226 16.66387996303915 0.0 -6.702321424082838 1.5580812836990048 0.0
239 1 14.038673524910427 6.754547545199722 0.0 10.080702930435557 1.508233111114016 0.0
240 1 8.503009114192839 13.567632363020872 0.0 -16.76350230868013 -8.905590817006926 0.0
241 1 4.175763533919263 17.928994090552592 0.0 3.819869985240318 5.201610507196651 0.0
242 2 13.014615384401628 0.8382388028394465 0.0 -5.311577916054476 -6.447750026701524 0.0
243 1 13.685712761624265 11.123325647669793 0.0 3.0315621408541036 17.820272260693166 0.0
244 2 13.004028395074062 19.533043793487973 0.0 -6.939433946635908 -0.6688348900048539 0.0
245 2 14.601936268276832 5.378054775181759 0.0 -1.7688895473598703 11.620031327712153 0.0
246 2 12.098975469521717 17.53229119690089 0.0 -8.802017949168377 0.5287749484722086 0.0
247 1 12.621159050716367 6.525463963900142 0.0 -1.4000788352947606 -8.232189491827603 0.0
248 2 7.78406733429661 0.5735871628246719 0.0 6.160188100596454 3.618215898065804 0.0
249 2 3.6970811974508138 6.957084553375713 0.0 -0.9828060829360475 -9.435833406158089 0.0
250 2 15.373161261906832 4.914720609992297 0.0 9.029986506986171 -6.127128104573293 0.0
251 1 9.397686037967265 3.710936743526227 0.0 4.216388327721595 -13.259696984129992 0.0
252 2 17.232048433265295 3.768989729801715 0.0 0.4993387957671558 2.0114735889768385 0.0
253 1 10.156096326307434 15.80994525548595 0.0 7.830630621763619 0.5796119338905072 0.0
254 1 10.976935297235006 14.16124236212458 0.0 -8.842398480115207 8.43656150786719 0.0
255 1 5.629805697807959 3.338557496419511 0.0 -9.296491191864414 -2.89384726268532 0.0
256 2 10.745138438863767 13.15779321861951 0.0 9.118465031470834 7.636131307446341 0.0
257 1 3.1768504058693847 0.7443366374406548 0.0 -5.021217007684049 16.35367916585557 0.0
258 2 1.2107789903466262 7.682059146727017 0.0 -0.68076306606167 -4.309688474717766 0.0
259 2 10.960244863342469 7.469208981452385 0.0 -8.331573804581105 -4.801027061776645 0.0
260 2 9.854009951937549 12.517361813600063 0.0 4.522759795807835 6.5447521855934765 0.0
261 2 4.675591284804107 10.24729461290055 0.0 8.505431332734428 3.6489543407623035 0.0
262 1 12.383371147616705 14.667788245755933 0.0 17.561307700699757 1.5275690706319394 0.0
263 2 14.291414408184997 17.221695419167705 0.0 2.156246816877915 1.31500215291578 0.0
264 2 10.447331050724289 4.007726650016279 0.0 -2.9056182723361266 -6.750539357057527 0.0
265 1 17.4273055903828 18.30432036263911 0.0 4.467116465474058 7.755228800211597 0.0
266 2 2.4666720628758894 1.6557939121354952 0.0 -3.5984909672443997 -4.949095865630715 0.0
267 2 0.3186522780693961 11.10763742885972 0.0 5.43793391912537 -6.134872058696461 0.0
268 1 6.361120474023147 16.302420927495724 0.0 -7.163484804160093 3.574180505997102 0.0
269 2 19.276671600920526 6.228104654987033 0.0 10.198294962989682 -6.201425156639938 0.0
270 2 9.812910947381006 17.83154860028984 0.0 -7.333107953592066 -10.172619100561738 0.0
271 2 7.988735942748386 15.249015123849867 0.0 -10.771321904202887 6.8884432207118245 0.0
272 1 10.655712700060729 0.5579062069341569 0.0 -9.22932435672863 12.77909776035398 0.0
273 2 1.2053931622331076 1.3279231260594464 0.0 5.287454411432174 3.574851140535435 0.0
274 2 9.539671338884258 0.6202300138930811 0.0 -2.3713296607700007 0.7870411857431298 0.0
275 1 1.8365076545111856 12.738992659647183 0.0 7.95958925594751 -6.510266348716739 0.0
276 1 19.12997446624534 13.762619347249931 0.0 4.841648295969655 19.253349529517088 0.0
277 1 12.615684823429456 13.485909612021889 0.0 -10.545801399994758 4.547177255393386 0.0
278 2 5.7359098736346 14.153710503309728 0.0 12.051319124154324 -5.780318646344074 0.0
279 1 12.207877587377531 5.34910670414082 0.0 4.546988072478675 17.039539130312832 0.0
280 2 14.676419236256153 9.127228318880809 0.0 -0.6947895032910287 -0.5364274353367474 0.0
281 2 14.479628399179855 0.327404594401534 0.0 -8.648798698107296 -4.897073394487846 0.0
282 1 9.940355283332522 15.006614950869228 0.0 -4.709566764538287 7.354195558571626 0.0
283 2 0.45170833200538163 11.983185218803143 0.0 -0.9935162737562233 2.766464773472027 0.0
284 2 10.835012190062647 8.680881512341756 0.0 11.591725992841447 2.657698262984143 0.0
285 2 0.8855643614542382 8.588323524063822 0.0 0.7191131188984943 4.117278823012685 0.0
286 2 13.465920369215215 9.594423230519928 0.0 6.201028715659094 -4.117034747122892 0.0
287 1 8.713184007186033 2.380735293977193 0.0 12.307916316459977 -2.350417509335364 0.0
288 1 14.821233091436095 7.830910841054217 0.0 -5.241665436159938 17.533838009738275 0.0
289 1 14.601410662194942 7.122539965400064 0.0 0.08048785578047983 0.2364800547375122 0.0
290 1 12.716289749053786 15.046787771669344 0.0 10.704705406922864 2.5096989993263934 0.0
291 1 9.683969282958484 16.182918082832533 0.0 -2.73878585656456 6.897447881451358 0.0
292 2 3.051039407165407 11.95156961675562 0.0 -7.4007688058730166 2.326363687515533 0.0
293 1 19.509373894977113 15.638087527956277 0.0 3.4496186414270773 4.045957841412121 0.0
294 1 14.659088616982654 19.30684608696501 0.0 -4.108134876254474 -12.560209410288147 0.0
295 1 1.7645476653587238 19.364654852706963 0.0 -0.059870873908886325 0.14373992580003586 0.0
296 1 14.19565636393258 18.72267234888313 0.0 3.529532333690506 8.618655006835777 0.0
297 1 5.5312276736378765 12.177989973097478 0.0 7.806076354113351 -7.955203552076214 0.0
298 1 9.723797164891495 19.111189868480608 0.0 -11.08859307378066 -12.46883394630999 0.0
299 2 8.537924481170208 6.767347770116746 0.0 -0.9082030221965066 6.16695180657385 0.0
300 2 18.329652096481432 2.861448539908471 0.0 -0.9476318202851098 8.962050065065778 0.0
301 2 11.582170515706398 3.321582666430835 0.0 -0.09648139812401778 -9.310456098780138 0.0
302 2 5.2642745409181195 15.24599217416607 0.0 4.34913860434293 -2.2156562229821684 0.0
303 2 18.480186071041693 6.840942986827784 0.0 -0.4407942654170525 6.252697582662073 0.0
304 2 9.852145160265628 13.93375507581893 0.0 8.497540814721171 7.182709301994996 0.0
305 2 17.058259062068853 13.984875849816648 0.0 11.371006578427297 -3.3527814235070306 0.0
306 2 17.69289268449253 1.3617420227552632 0.0 -5.450827648322368 -11.501548026274024 0.0
307 2 6.4212214214368 4.383945807567098 0.0 6.763768846835028 7.197654619955081 0.0
308 1 16.727840209102105 2.4733296697257066 0.0 -9.21253600967604 1.1092039034091443 0.0
309 2 19.43838334365049 17.736571344385663 0.0 6.269427153806334 2.2780459009998144 0.0
310 1 3.8084091852302038 0.0726300433327887 0.0 4.070485497363233 -3.896881804089709 0.0
311 2 2.82264971522388 3.953871682749163 0.0 -14.647266696118864 2.20300532749001 0.0
312 1 2.1250037396574353 0.28869418897673854 0.0 3.2330805729333014 -2.425512600853846 0.0
313 1 2.390769191434608 0.7485072012818884 0.0 5.215255367972041 -14.527002942236944 0.0
314 2 12.534748482828089 18.537710399657378 0.0 -0.5985217741102439 5.218387742180066 0.0
315 2 4.9477094469791005 6.496878097091374 0.0 2.4466273363712547 -1.8768898475524802 0.0
316 1 10.714383612226651 18.19383505092929 0.0 -1.292056291882633 -3.308585552849407 0.0
317 2 5.661910306718589 19.359865470177866 0.0 3.927424420287282 -0.09044530502234249 0.0
318 2 0.4575210578588492 6.501321329016536 0.0 6.859421838515331 -0.04825656772973679 0.0
319 1 10.888960683169868 19.205202021804965 0.0 -24.967225342167765 4.329430889124325 0.0
320 2 0.5208870701361265 9.376406102542292 0.0 -11.390178836989826 -3.75042425189593 0.0
321 1 1.7371886273325028 11.779341673539797 0.0 5.429646878359826 17.837100889553053 0.0
322 1 12.130878280594333 13.231160597621093 0.0 4.503351982049468 0.6606144212742793 0.0
323 1 11.671977496981391 5.455577763225881 0.0 -10.052591970201767 -4.697267945607633 0.0
324 2 3.0004698412920376 7.5158832936840545 0.0 -7.690521557288543 -1.706269667376064 0.0
325 1 6.697823261971859 15.00553795625734 0.0 1.945154611373419 13.522805311338791 0.0
326 1 15.222315898010022 19.098955932095087 0.0 11.070781847409743 -8.33573250396078 0.0
327 2 4.117453228592324 9.101566580993243 0.0 -2.6493155447089114 6.4495804703884705 0.0
328 1 11.526669268258878 6.412487927836953 0.0 -5.786007254506956 3.946865223544884 0.0
329 1 13.081164196784016 13.871225429031208 0.0 -0.758293448564039 9.029744764248365 0.0
330 2 2.5694705912530647 5.888815059473286 0.0 -9.268566695096194 12.374811629070944 0.0
331 2 17.935095887647762 14.081157542981957 0.0 10.892449697856497 -0.16487648379608455 0.0
332 2 7.311259691972878 1.421863544420051 0.0 0.7537733234731557 -6.3674157711090915 0.0
333 1 7.878132267414121 16.543712216089258 0.0 12.490780657234573 5.205355265070496 0.0
334 1 2.052135451530743 14.871591541819358 0.0 -12.39061362776506 -1.528399241369602 0.0
335 1 5.978687271390555 18.44291859135362 0.0 1.9876264582772964 -3.0925370981534077 0.0
336 1 4.429515751592708 14.298836040967938 0.0 2.212916221273397 -11.427575040825188 0.0
337 2 18.249853286813366 9.868114909389408 0.0 -2.153752236370267 -1.159820319772259 0.0