ITEM: TIMESTEP
0
ITEM: NUMBER OF ATOMS
400
ITEM: BOX BOUNDS xy xz yz pp pp pp
0.0 19.7609 0.0
0.0 19.7609 0.0
0.0 10.0 0.0
ITEM: ATOMS id type x y z vx vy vz
1 1 11.787941826538683 3.1446695606285426 0.0 5.607169257430536 2.9260506309082515 0.0
2 2 9.084211790657042 3.252509496364232 0.0 -1.5509225545563456 1.7952122259761023 0.0
3 1 6.494101494125328 12.738152842572845 0.0 -0.44682645793199605 3.8844972752017366 0.0
4 1 11.113117446718622 8.485528413052451 0.0 -4.229995940880557 16.42764274814038 0.0
5 1 6.755202894468781 10.039379721590635 0.0 2.245663376685619 -7.585477899860496 0.0
6 2 10.921703517745172 13.074283594799024 0.0 8.58945300801998 -2.4135850288225833 0.0
7 2 16.222387868899602 9.192801448832395 0.0 6.911105913601534 1.860337374883397 0.0
8 1 9.178695019556592 5.185371886344502 0.0 2.26158534189574 11.745593952881109 0.0
9 2 6.946476544316437 11.601372270121162 0.0 14.297079022383818 -3.2304393731491263 0.0
10 1 6.808520679991274 17.659287215117732 0.0 13.72623596157162 -8.975990219493156 0.0
11 2 6.022506054044148 10.410966639660433 0.0 2.3053120180470184 -4.5221312100498245 0.0
12 1 17.311984131536445 1.2006683129909692 0.0 12.180671619552934 -12.536284153842967 0.0
13 2 8.586421699250305 9.003551410258446 0.0 0.4012224513070163 -0.955415474661908 0.0
14 2 7.3688361457060205 7.504827673006105 0.0 0.3544863378742296 8.331175622896076 0.0
15 2 15.418858296046496 6.428919507856967 0.0 5.157117469901605 2.768433704955194 0.0
16 1 16.64214026671248 16.730945816286575 0.0 2.149655218020192 -5.083922843520629 0.0
17 1 12.949094009812503 5.295693318117413 0.0 6.409157059513509 5.2427011602203955 0.0
18 2 6.845300692053295 5.0699827943854325 0.0 -6.356096888575114 1.1239500206388493 0.0
19 1 9.14439755707457 12.999707835301686 0.0 -2.0763709410688653 1.2540530711556943 0.0
20 1 14.995407924578366 0.8522717969194034 0.0 2.9228082833544047 -7.90817918305037 0.0
21 1 2.7002194369567194 7.356938595981499 0.0 3.437830276343424 13.765521347827478 0.0
22 2 11.526488729352515 7.8242778403485795 0.0 1.5152716071557861 -9.45196305232032 0.0
23 1 5.66103526198829 11.178850079646425 0.0 8.864857165344633 -7.962018461134468 0.0
24 1 9.184613212777753 12.270610154627992 0.0 4.375079361048808 -11.931060151547502 0.0
25 1 9.114761495943295 9.630598954314141 0.0 -0.18229784519544429 -4.39306945157269 0.0
26 1 10.307388786957318 17.42805972624594 0.0 -2.1429736891661766 3.8941667286082797 0.0
27 1 2.66567198097554 1.1511364585328074 0.0 -18.23036118272586 6.45541398330306 0.0
28 1 0.4180508008125785 17.88162379525944 0.0 3.8526041324834535 2.1397982554601658 0.0
29 2 10.28939338665615 15.540822763606508 0.0 0.053815140553901714 -7.593162258043249 0.0
30 1 7.7012590675144175 8.509047258146998 0.0 -3.3790177634528096 5.83638039777577 0.0
31 1 15.115099007517502 16.17175602355622 0.0 0.990557258514501 3.144208597494116 0.0
32 2 11.17319004621395 4.274963250925315 0.0 -1.3159069891987083 1.5866352354338633 0.0
33 1 5.7509422897918885 1.9437096972522996 0.0 -16.760938647030226 0.412203943590743 0.0
34 1 16.11224365206359 11.021664307813918 0.0 9.328335722296053 7.0680573045068416 0.0
35 1 16.502756724151485 14.610082147460465 0.0 12.454480016442622 5.943926746342688 0.0
36 2 9.709991337542368 10.099757403319039 0.0 -1.6410952942022288 -5.920317395960448 0.0
37 1 7.7632316729048005 9.209121660876471 0.0 -4.444842728974512 11.52319626439064 0.0
38 2 2.872344280719649 1.9496561411955902 0.0 16.31457641253487 -3.477053535034778 0.0
39 2 0.9399099569555269 0.5583522331112079 0.0 -0.14035347049633837 10.223855340161473 0.0
40 1 16.09454165725578 4.8119361982749655 0.0 17.33848142313132 -4.015131319701794 0.0
41 2 12.343168127342189 12.096509966107293 0.0 -1.7853935780852859 0.9900799427456997 0.0
42 1 0.7144068425700075 16.10280369500669 0.0 -5.1936902503025015 -2.051221853572986 0.0
43 1 16.173601652232275 12.293498027204041 0.0 0.13610219613449273 -0.5108534707635527 0.0
44 2 4.756416067625726 0.319392591691099 0.0 5.292844043274239 7.19509844729099 0.0
45 1 16.16547990259896 1.4322784034177478 0.0 16.656585599050434 -7.539234700781843 0.0
46 1 15.72767435671609 4.278492977261728 0.0 3.6064143133817597 7.465155462367828 0.0
47 2 12.462669215611296 18.649634193747758 0.0 3.4786638425609455 -0.9600613237653043 0.0
48 2 3.345952757033745 15.589112833060089 0.0 -7.699318592519848 -6.766779821797663 0.0
49 1 6.049119252830751 8.314904876917765 0.0 -23.496716471007193 8.619454201390466 0.0
50 2 10.081703486581121 19.28996372742124 0.0 -9.483998046409354 2.445584238302782 0.0
51 1 19.667954896638932 17.630428592267855 0.0 3.1409323764030717 3.538933679040078 0.0
52 2 1.683914436610557 18.642165963943803 0.0 -8.092247447127322 6.962923051841334 0.0
53 2 0.14511740945919535 2.5216105911876388 0.0 -2.9606830014846452 7.259594394321812 0.0
54 1 11.773244640241991 19.303210505062967 0.0 1.957761399962547 -12.178755962663836 0.0
55 1 7.894655457366978 17.407719362981137 0.0 11.390648011589503 6.4893363830521436 0.0
56 1 4.049896592900696 1.9315802010923808 0.0 -10.121092193319527 5.133806621872991 0.0
57 1 8.713518382272285 4.08528157446757 0.0 7.67791319249872 15.469446277031627 0.0
58 2 2.411682265273132 15.621095498473135 0.0 7.870556400106019 2.740340624120291 0.0
59 2 10.454693418633758 7.5686034135885825 0.0 -3.7483060291043744 -8.352999064404806 0.0
60 1 15.16990001202747 18.326964730432117 0.0 -11.730627726177522 -1.1619570608390182 0.0
61 2 14.174307457480294 9.886229666571422 0.0 -0.6963315928842065 -11.326136102951715 0.0
62 1 2.303874096038558 11.493593004510554 0.0 -4.397300027111045 4.968782114733924 0.0
63 1 4.672493226832775 10.59871498906434 0.0 -11.05093990549249 4.4630169015628205 0.0
64 2 10.215701281206792 5.712648222155931 0.0 -0.6732477675102632 9.108120275777061 0.0
65 1 9.43714367823972 11.928552522122557 0.0 6.683870444886742 0.9737250529949103 0.0
66 2 2.781693678706399 19.16709692239755 0.0 -11.869666422160474 -2.715835426310019 0.0
67 1 18.0965713152262 1.8493115139514391 0.0 -6.580634636229718 7.906000653382722 0.0
68 2 16.718301286047904 2.170306532047541 0.0 -6.729693160140668 -0.2773194612960008 0.0
69 2 15.896316902920159 19.004198105914877 0.0 -18.19370325358552 -3.9609620896563644 0.0
70 1 17.032957512232063 15.694023925702213 0.0 -7.101912247992145 -8.185170592006621 0.0
71 1 18.35698978921565 6.94337982012477 0.0 0.8238943212098767 12.334645927014327 0.0
72 1 6.0789063424403205 18.097011285641276 0.0 -0.41571511927129734 -12.873115577367463 0.0
73 1 7.97490498886164 5.969482482080015 0.0 -5.471023001144572 -9.948899966647085 0.0
74 1 6.114184137057907 0.45483003765869806 0.0 -15.102536720295266 9.048265856918931 0.0
75 2 18.661089071586368 18.42853121159385 0.0 9.835031605168284 2.829659972919605 0.0
76 1 9.85019216641941 6.7246257885906475 0.0 0.027534936287306678 -8.438454969172577 0.0
77 1 11.263061253912749 19.294050862885822 0.0 -5.282363703725185 14.775079885675934 0.0
78 2 0.025642960436514966 9.998890202527239 0.0 -2.887806823569485 -5.650255216229609 0.0
79 1 4.475289763262498 17.428965993315554 0.0 14.801703204216592 -16.483422526472236 0.0
80 2 18.334646374015723 5.775370213870972 0.0 -7.611154341798219 -2.3484241627951374 0.0
81 1 11.768100358520218 11.314760757350932 0.0 -6.8356331776732855 -14.074353573266158 0.0
82 2 19.01389819787707 0.056019952597052065 0.0 4.549409561075349 5.2403779455598904 0.0
83 1 13.634525103969695 0.4086714189663153 0.0 -5.2695716561997115 2.190923554971224 0.0
84 2 11.786752585179261 16.598936739653123 0.0 10.774348208855328 3.5127277304078106 0.0
85 1 8.655160634907533 13.309785054658244 0.0 -1.8228093048518432 7.82759401695315 0.0
86 1 12.607131535542324 7.626916742624588 0.0 -3.4594717303606854 0.2183354406528426 0.0
87 1 14.614793018413577 16.888599904743113 0.0 -2.0063266951452823 -14.565536433971104 0.0
88 2 8.268391555004003 1.173054298121365 0.0 4.834327567012128 -8.336087619835954 0.0
89 1 4.595073382045024 1.6859191628570274 0.0 -3.1219214067893724 -0.09963078016145656 0.0
90 2 4.867265208023447 13.416413483326188 0.0 2.6512135687689833 -0.24779351758638896 0.0
91 2 1.8141877597361504 3.4243572820757677 0.0 -8.043380052392337 6.394947521056383 0.0
92 1 16.148468103940246 13.553609657959486 0.0 -1.6080556323678232 -0.028709871537650086 0.0
93 1 18.98049279889247 15.292604005179486 0.0 1.2122379763257611 11.454429343608744 0.0
94 1 12.894085886547842 1.466072493640494 0.0 13.551824233363215 5.874387639402268 0.0
95 2 0.4542940475512715 5.813899076193367 0.0 1.3401416513688185 3.940776207619357 0.0
96 2 17.434075015653445 8.486013476273078 0.0 6.436807431660968 -2.3068504458973282 0.0
97 1 8.837940939342452 15.164258246078182 0.0 -2.4849846286213064 -1.5681569003618336 0.0
98 2 2.5954278532546966 3.76682806479862 0.0 -0.08757240158969193 -0.2273178672477951 0.0
99 1 11.743897791589246 9.850826931042374 0.0 -0.48774777343383646 -12.725440452395373 0.0
100 1 6.893335958887419 12.480041891751174 0.0 1.4253963596827206 -13.973739602499341 0.0
101 1 10.607564882091301 18.580875501843373 0.0 5.32194681985137 -1.6411052019803358 0.0
102 1 18.198793045206333 8.961061994649137 0.0 0.06579581541258839 9.638552034521755 0.0
103 1 16.07706042871826 7.0058915185142006 0.0 -5.544227694404637 13.025448916033884 0.0
104 2 3.8027012883645557 9.112161164129104 0.0 5.44596652319129 12.637120680806023 0.0
105 1 16.363740646637627 13.015149378729884 0.0 1.3043858658089036 9.043152333017241 0.0
106 1 16.963702791598724 19.70410582655332 0.0 -0.5381253812758237 -9.624137742730612 0.0
107 1 11.581931730008044 18.675114058645264 0.0 -10.753357356485962 -3.174483258704951 0.0
108 2 1.0423652149107692 6.428227733254375 0.0 4.079712199854369 0.6158552908361774 0.0
109 1 8.913594593057123 1.9159881276359518 0.0 1.2443555567866054 0.8867616140027444 0.0
110 2 18.21984999905245 0.8403270448884874 0.0 7.671552089461432 5.295881521273096 0.0
111 1 18.506409176777616 13.189711405994196 0.0 1.6915719506759472 -0.6745495815301288 0.0
112 1 9.470882216852191 14.140325429440939 0.0 -17.760705647444016 5.200711367524316 0.0
113 1 15.458364831656695 9.043763568487094 0.0 2.475871393234492 -0.2661813258824511 0.0
114 1 7.329005143931566 2.1746055071988235 0.0 -8.250757551444517 -9.070659205581052 0.0
115 1 15.057423858899737 8.563090193528463 0.0 7.281448648998109 -15.459039638634993 0.0
116 2 3.3450500712845512 11.472344699800132 0.0 -4.725697636876311 3.8542925837222164 0.0
117 2 7.517852772882082 3.169063739965751 0.0 4.556431620099798 13.579237768748609 0.0
118 1 12.039042109310769 2.4473427205241416 0.0 -0.3781138603777924 -6.055425392736626 0.0
119 1 14.888447844578627 0.4048219469222665 0.0 7.373200651787552 11.725328872088717 0.0
120 2 8.321704553933174 9.954070998581779 0.0 -2.078022023320044 2.5037169156090515 0.0
121 2 0.5321809018562895 1.4345646306567172 0.0 -11.09640448115251 0.9370538997597267 0.0
122 1 5.559694973534784 9.074600164124512 0.0 -28.97253035438607 5.601910754859596 0.0
123 2 1.2121764850785315 8.820460057707828 0.0 -2.0714346856736463 4.368480972295609 0.0
124 2 6.6138182227193205 15.204994737308441 0.0 -0.8951106572073891 12.877977211101745 0.0
125 2 13.518631440131362 2.0547902984463677 0.0 -1.0741903010809477 -12.740662808902119 0.0
126 2 10.504964370204496 3.0707528753335094 0.0 1.393630234347626 -8.477400995292415 0.0
127 2 8.346857370666742 7.868378684639735 0.0 0.2563286780171705 9.186519936223835 0.0
128 2 10.658967601723262 0.1623698282722583 0.0 -6.231462253705867 3.47831209714413 0.0
129 2 2.266770952914162 9.046360278442982 0.0 -10.505509580824809 4.143442758473167 0.0
130 1 5.617156398743885 12.864590101205463 0.0 2.2972129021667054 -7.8396572189706575 0.0
131 1 16.371579803103128 11.73290931603571 0.0 13.038484566919454 0.27249978669032454 0.0
132 1 12.668593321807217 4.1902786777197205 0.0 -6.990248259369902 7.481855390590091 0.0
133 2 8.586866520542806 7.032061616181923 0.0 -1.958238965973871 5.021081156191685 0.0
134 2 1.8173978758926208 19.654207475116813 0.0 4.878242442648289 5.143566294024756 0.0
135 2 15.29097559686004 13.48151132132202 0.0 -9.485278391402314 -2.1080597783859516 0.0
136 1 7.420342159246366 5.580942125330658 0.0 13.171504103448688 -11.93648506879664 0.0
137 2 0.9848570939981104 2.2133179729582184 0.0 -5.051083576139608 -10.415123930369084 0.0
138 1 14.966621612328879 14.154558940883293 0.0 2.7165322291863685 -9.27415247012097 0.0
139 1 3.7846700682319527 14.537798789148141 0.0 -15.991316265052124 4.5441644709479965 0.0
140 2 19.744403443848622 16.853299206394052 0.0 11.323653007738734 -6.758272904959697 0.0
141 2 17.624743568104 18.70410505300888 0.0 0.6956299344939015 -2.3250603981611 0.0
142 2 10.729936329862275 9.683033200179858 0.0 -0.6028025786478005 -7.410885081457167 0.0
143 1 9.56840734517976 6.169361558875235 0.0 -0.6104692533414082 -5.053760204969205 0.0
144 1 15.178838380905944 7.293801348373137 0.0 -6.099806017418833 10.71482564241834 0.0
145 1 18.956241601254657 8.637858134255328 0.0 -17.589944448702564 22.18391568738557 0.0
146 2 4.303559396729955 2.877893905129462 0.0 6.4178540329359475 -0.3781837985340573 0.0
147 2 8.813412816074175 0.04643726897914697 0.0 -6.797174136141556 4.993659421221798 0.0
148 2 8.64568423466301 14.163787038864605 0.0 -0.9969921333523989 -0.866339523448672 0.0
149 2 13.268420108118136 12.562256030399634 0.0 5.82080323255203 1.1835490819961982 0.0
150 2 17.550732470820993 3.714581442254652 0.0 -7.342043774201766 -8.634244549473173 0.0
151 2 18.206393706419767 12.459115802003035 0.0 -3.2729414848566054 -15.955594593106014 0.0
152 1 14.377485169612742 3.682793254046698 0.0 -4.952611170280696 -11.986342402823789 0.0
153 2 6.143847980522104 6.712313119520519 0.0 -5.505586035736897 -3.709287821633677 0.0
154 2 7.655939033798965 6.769351900576634 0.0 -3.1787752702926793 -6.889993266615144 0.0
155 1 13.688881546380331 16.304879344681403 0.0 -1.0509803404051254 -8.341669486115746 0.0
156 1 4.090243185402593 15.79246815942189 0.0 6.171568362859218 -7.95246594142745 0.0
157 2 1.2034721010607439 14.394060493252137 0.0 -2.175383474514813 1.865819663692879 0.0
158 2 17.941166251707315 19.607244912800162 0.0 1.612512088919357 -7.670989457028558 0.0
159 1 15.839316847326698 12.86232259978851 0.0 19.38185601602977 6.338895234585118 0.0
160 1 11.491787330175772 11.744492499909812 0.0 -9.517294850674697 -8.577646008546344 0.0
161 2 9.981503885731119 8.7633971719702 0.0 -4.863211617880437 -0.5946828921593327 0.0
162 1 3.2137535053221753 3.0816742278652125 0.0 4.135070478720574 -5.311972862770479 0.0
163 2 11.702593044300185 1.7900487550350916 0.0 1.5167865753532563 -1.7391408391130347 0.0
164 1 8.726753468579242 4.684433113051848 0.0 -3.1954509219148406 4.065684228083613 0.0
165 2 6.505712142538372 16.329030667655317 0.0 3.4380539978403326 -15.660187338298812 0.0
166 1 19.129014035234707 2.206440353978093 0.0 0.984152044839878 -2.7276739516596216 0.0
167 2 19.19655508231573 5.053751630914176 0.0 -5.559343285548923 5.001001805123918 0.0
168 1 1.4736377635473052 11.566692231239267 0.0 15.011536900580015 -6.47099960336862 0.0
169 1 9.85837192975033 14.694208575318108 0.0 -6.349048189396036 -4.832613498027998 0.0
170 1 17.11971484718275 6.026641239500516 0.0 1.2299000165006027 -6.194632656670408 0.0
171 1 2.8602056758739494 14.644899888999703 0.0 -2.762338996838958 -1.7958873797381991 0.0
172 1 3.214177031741029 5.519930866518308 0.0 -4.080273814149463 6.714224284358377 0.0
173 2 15.826087605241579 0.3016916306777765 0.0 2.15785404292278 7.759932621369351 0.0
174 1 0.6987012395749727 13.70825995528703 0.0 5.55838370050323 -5.306634998991482 0.0
175 2 16.033665024639657 5.636018796887823 0.0 -1.943198336220625 -0.19449514736629583 0.0
176 2 2.219369986035168 4.831066637797494 0.0 -10.636436060014493 -4.96341092369707 0.0
177 1 1.6547757422783245 15.207830844782865 0.0 12.452551917604023 10.347335547759098 0.0
178 1 6.618785996452796 18.469125273281314 0.0 -7.303739664969633 -3.1016052300460037 0.0
179 2 11.038920707559834 14.439318443204808 0.0 -0.30774971231733667 14.866124036963576 0.0
180 2 17.584659996348616 10.349681858298453 0.0 6.1927404965716875 6.8627707086090455 0.0
181 1 8.046016679931803 2.2428612796379683 0.0 8.999198372867584 -7.9363859296363914 0.0
182 2 14.526086766977278 2.025468907866493 0.0 2.5476053375421954 0.9461015462395009 0.0
183 1 19.450121595321814 8.711497513038218 0.0 6.0555331053388946 -3.330925755242889 0.0
184 1 5.063335230817212 12.600886815863225 0.0 -11.903492670809491 2.2859052014318904 0.0
185 1 3.1463405460642657 8.526897134919905 0.0 -16.359866011602833 1.9410459500315518 0.0
186 1 11.823647939748023 14.213657788315375 0.0 -1.3538079548077144 -6.6291744775477754 0.0
187 1 10.947625792939766 5.444681108702868 0.0 -3.306409341303594 8.140379358702505 0.0
188 1 13.00728349061688 6.656961590861701 0.0 -0.36076524858962383 -6.138094091948294 0.0
189 2 15.254818288680005 12.176899400406311 0.0 -4.012178885043509 4.506166865784787 0.0
190 1 11.791580048519629 10.446442432497218 0.0 -4.1659208869107704 -15.259675491831981 0.0
191 2 3.6542736471659136 13.568277439027387 0.0 7.20362769985775 -6.715836226825707 0.0
192 2 13.29124891022906 18.309721215057518 0.0 2.0240838255693125 -2.9381649598806945 0.0
193 1 4.589494128704219 15.279099683835243 0.0 12.840788926299751 -2.6542628839404747 0.0
194 1 4.5136749893331665 16.770725955615276 0.0 6.909669546345953 4.1077940176389385 0.0
195 2 16.233341341193444 8.171290171094041 0.0 -2.8404167455506686 0.6840557942287913 0.0
196 1 12.902801838177199 19.510017199801187 0.0 -0.4476917009249036 18.589133829693022 0.0
197 1 14.202593035698955 13.840478865811109 0.0 4.278199649125048 1.0619617089169338 0.0
198 2 7.0859206551467855 1.248842431462662 0.0 3.554211450176413 1.7818666398692073 0.0
199 2 7.4898578410581464 10.37647559977922 0.0 4.86728819440072 -3.9703269171070854 0.0
200 1 13.937571559708882 6.783390009950978 0.0 -9.291531881511998 -4.848007223217291 0.0
201 2 1.891774043321913 1.3831794645025641 0.0 3.985262568918693 1.592471349696371 0.0
202 2 12.26704703233161 5.869788936686767 0.0 -5.4361716453387565 19.951556110456586 0.0
203 2 14.446246706653064 15.643969746930345 0.0 -2.9170567237416387 6.759252547259126 0.0
204 1 11.490036971843267 12.412317944422337 0.0 11.837754694399983 1.4836180417311775 0.0
205 2 7.030262657724906 6.208675292732266 0.0 5.06189226902786 2.515398695771354 0.0
206 1 5.918169828629692 4.542029783761186 0.0 8.464000469353502 -15.817832097260794 0.0
207 1 6.887290809828165 2.053403646013151 0.0 -3.260884153881628 1.3322433702622325 0.0
208 2 2.3597283733243284 13.888603877994663 0.0 -2.2991788310154626 -0.2636229977486978 0.0
209 1 14.689221735968303 10.532601015699319 0.0 -5.225493527612381 7.559257972467311 0.0
210 1 11.484738949175537 9.376815574627596 0.0 2.6404386832731315 2.1913880055925956 0.0
211 1 4.466131449971399 14.266288303491661 0.0 4.736289998581775 -8.525516378223235 0.0
212 1 8.790729597430147 11.362152080147727 0.0 -7.921059754364403 12.6110291902399 0.0
213 2 17.776862822471706 16.571698335268273 0.0 -5.9119110739794865 2.898427716895843 0.0
214 1 1.9147573062092589 11.997817008467322 0.0 2.9314291871707003 -18.151956984980277 0.0
215 1 15.516727903786725 3.7274369782350343 0.0 2.9667685406367506 0.9913411100989505 0.0
216 1 0.0032887777611972707 13.990486588952152 0.0 1.3004406711177732 -4.627841412070708 0.0
217 1 5.281955785854509 11.889281977907743 0.0 -10.591432440991529 7.753886929336486 0.0
218 1 9.351347071039466 11.069164383198041 0.0 8.603497460929733 6.396946628773647 0.0
219 1 19.102454860493925 8.074105003845979 0.0 -16.899402318253816 -12.058818656227093 0.0
220 1 8.740964740001887 12.100649656491205 0.0 14.812877747810683 -3.2831932038901535 0.0
221 2 14.094242752066277 8.684404646792622 0.0 -4.419710001531446 5.3401502925242434 0.0
222 2 9.653074343710044 4.15040423371551 0.0 -3.122785744726659 5.12661595460974 0.0
223 1 16.259166016512488 3.4612892800407153 0.0 -17.978246694238617 0.7464873060439962 0.0
224 1 15.61946007032186 14.429964277764457 0.0 3.6614759677087756 -14.229486284148267 0.0
225 1 17.047386121533254 4.962293567495124 0.0 3.9981709738765363 -20.97486874260557 0.0
226 1 13.943545167078582 10.83172911383517 0.0 6.138943641127814 6.041318527704785 0.0
227 1 5.930715732156299 0.9503991941989326 0.0 -0.43509851190636506 -4.26947252085936 0.0
228 1 14.021573968590452 1.1947172421678867 0.0 -17.015667103305265 4.157874522690537 0.0
229 2 6.633015233064039 3.8518357189033177 0.0 -8.278741355561284 -0.07516140525604717 0.0
230 1 3.683958941905993 4.55904388625207 0.0 4.368656302017654 13.354864663729142 0.0
231 1 14.130061572153759 0.5930640144861256 0.0 -10.083904509445222 8.210419968597265 0.0
232 2 2.5461736806895328 10.423743144945258 0.0 6.6613904957259376 -10.000027831778944 0.0
233 2 0.9293200197111107 4.754477982732189 0.0 0.6998837416276441 -5.411297108461378 0.0
234 1 7.948518921067193 13.421299964185259 0.0 -7.426990403684818 0.6423380659780841 0.0
235 1 5.378562968343372 8.196223459734316 0.0 8.122769482439306 -7.10876299184441 0.0
236 1 19.225146961985995 14.225056613793624 0.0 3.7655210106750734 27.708572390936844 0.0
237 2 7.562374291398676 14.24968337379495 0.0 0.725707269392047 4.986752893014908 0.0
238 2 18.670845155662096 16.744983722028753 0.0 -3.2856597371793352 -0.1398850539273562 0.0
239 1 9.664483326105536 1.2720900192271658 0.0 11.205452648965498 6.136529735259409 0.0
240 1 7.528088537727352 19.69165037914478 0.0 -0.501105581955849 -3.5751707029583066 0.0
241 1 11.391477378431288 0.8768163660397398 0.0 -4.245452758962255 -2.5396672018923807 0.0
242 2 0.7165341521309164 3.5165181930574434 0.0 -3.069286980147157 1.8068180798485636 0.0
243 1 18.596957426932445 11.251921825892426 0.0 -8.55916697692772 -3.778098484710639 0.0
244 2 7.798392521873724 15.425202684727768 0.0 5.9309687284535775 -4.611977993654439 0.0
245 2 17.498019550310932 6.974156589755417 0.0 -8.643080891050753 3.706640956576148 0.0
246 2 6.595742228758521 9.036785055766384 0.0 -2.1694346533977003 -9.122232636628189 0.0
247 1 2.462319880052425 12.102340577564819 0.0 5.8587081777986905 8.442563733043832 0.0
248 2 18.19824768300605 17.504008933516076 0.0 -11.082284528588215 -6.287310794591502 0.0
249 2 1.3399690464360794 7.683023276972472 0.0 12.306247672887563 -5.2966603949149595 0.0
250 2 2.4438282513279423 17.67218593491236 0.0 2.3091515849826383 -1.4557075640245856 0.0
251 1 15.272436190530266 8.01849429444721 0.0 -1.218519300108482 0.9563765416497368 0.0
252 2 18.546855950281213 10.196824380603717 0.0 2.7669229488611626 3.0523034028306766 0.0
253 1 4.616454940065996 11.809578568829075 0.0 0.07872660940639542 7.637095548827093 0.0
254 1 3.4802144322174176 6.216715882262971 0.0 0.16389745825601015 -2.4632754054571566 0.0
255 1 3.5336964545806864 8.20879581966012 0.0 23.018368968939313 -4.316384633507134 0.0
256 2 4.356146511934139 8.282767917837617 0.0 -1.7292169729375344 -6.698842824033549 0.0
257 1 2.148097855946619 5.76925790539515 0.0 -4.531707346353117 1.9379519098040072 0.0
258 2 5.924292930992617 19.24710280063734 0.0 1.2926468690021549 -14.525307653161954 0.0
259 2 14.275694870023301 19.157289428709372 0.0 3.1457657761452573 -3.1859913762597447 0.0
260 2 4.986217138425325 3.696076732172417 0.0 0.13492927604147534 -2.462323949057342 0.0
261 2 5.157634094877421 1.1910370676840576 0.0 10.960733507911286 -0.06565599178944864 0.0
262 1 17.230375300873245 14.568220267861626 0.0 1.0085902825531696 -1.5140127894395408 0.0
263 2 13.577237437481983 4.827862853647374 0.0 -6.156589484814948 -11.55911330634974 0.0
264 2 13.13631843462785 3.513104272441436 0.0 2.1776161861515924 -2.780614202181883 0.0
265 1 12.304356898973467 3.1384896781580656 0.0 8.42683207770746 1.9274662112432164 0.0
266 2 5.0180857877245595 18.896811039487204 0.0 -6.338600950009702 -0.6161926076449138 0.0
267 2 9.912232896523246 16.461517705979176 0.0 6.0165426709300345 2.6716217268579063 0.0
268 1 11.879131712047114 13.374884256282071 0.0 4.338099438879936 -12.798467556591788 0.0
269 2 17.18362477418568 12.235409124144995 0.0 9.799459087820846 3.3055595414833867 0.0
270 2 0.22330842019380193 12.361739256789958 0.0 7.72710113510211 3.266514988188255 0.0
271 2 11.893831105667903 5.182509607747532 0.0 -4.28660409849062 -4.4722949037276765 0.0
272 1 10.103384272812983 0.9072988149805028 0.0 -0.9101170905675162 1.8636070949497163 0.0
273 2 18.43725643767908 2.674486959019512 0.0 -4.9116894358488254 4.060133241224473 0.0
274 2 15.885815316186282 17.990442929736698 0.0 11.697344031111587 -0.3154782099736067 0.0
275 1 1.6782534904660893 12.661094839437887 0.0 -6.434508962636872 -2.305007797249263 0.0
276 1 11.359012157506442 6.618887052648943 0.0 11.29466240818353 8.116963233463288 0.0
277 1 15.490122447048295 11.19383299403891 0.0 5.3358851257330855 -9.400689329244099 0.0
278 2 11.90732593060668 17.613095755072873 0.0 -5.357489370103299 -1.5521187885235392 0.0
279 1 14.411332661468041 3.0509940525390906 0.0 -7.379779705159055 4.9592832830318505 0.0
280 2 3.7650270881578933 19.305945612816753 0.0 4.840531948086744 -10.989665584022049 0.0
281 2 14.437140364766055 5.990212528328291 0.0 -3.6330869222864806 -11.889900711861346 0.0
282 1 7.657779143536113 4.316034223325643 0.0 -8.807293910265088 2.7793901173269333 0.0
283 2 14.290781253154817 18.021106532363163 0.0 -4.479191263109359 2.109124970053112 0.0
284 2 2.7932960315970954 6.483533912945386 0.0 6.431488017634122 -4.7347427682978696 0.0
285 2 6.1230142600533135 11.907451981072699 0.0 3.9416263863258805 -9.694294592360446 0.0
286 2 12.12996063394677 6.935694672572448 0.0 -9.619429834187976 -0.6117081474158882 0.0
287 1 17.08875096275558 15.210536515802232 0.0 12.783215679684371 -6.713796540708887 0.0
288 1 11.376302778160376 2.788450940151875 0.0 4.1283330763611295 -5.5680070527342 0.0
289 1 6.723033551922219 18.986201026311768 0.0 -9.154974721203667 -2.53111245911169 0.0
290 1 5.162409617681661 17.96683934738742 0.0 9.474080133257786 9.891262185051737 0.0
291 1 12.718138496040778 2.887721804510093 0.0 -3.3308396028152134 1.706898495794262 0.0
292 2 0.5464733752007808 7.281986914902855 0.0 -5.266020750598876 -3.332717523001522 0.0
293 1 3.9539766060956008 12.276991579830293 0.0 -2.720339332130662 -0.5269930162969304 0.0
294 1 8.33697769627683 3.798337902912454 0.0 2.0251275945919662 3.021967639033967 0.0
295 1 9.616987271886227 7.181351279009433 0.0 -6.102455873603508 3.6290268801440115 0.0
296 1 0.5474740235547094 19.58204048697416 0.0 -4.287277043110365 7.523446667979854 0.0
297 1 16.993346418801707 17.38109824277519 0.0 -12.972465848095874 -2.805884181450968 0.0
298 1 10.702263703806528 10.620585467449956 0.0 6.941497445046619 -13.133164714598601 0.0
299 2 5.317087836158316 14.7573805099694 0.0 -6.500912926919446 -10.120543117409959 0.0
300 2 10.504809090160482 11.83372501714352 0.0 5.8724403660335796 2.3132963215733056 0.0
301 2 7.717054897483234 16.525902873874504 0.0 -10.68239027488873 -5.242262137298315 0.0
302 2 3.9398944376219376 18.224932311308006 0.0 9.318691465361388 3.0596368682824857 0.0
303 2 9.685300594252222 2.3751223372400156 0.0 3.6777141533300006 -7.952104636632457 0.0
304 2 9.58622229554472 7.950219329027358 0.0 7.917677230262999 -3.311286251834272 0.0
305 2 2.741583202704867 12.892655919571208 0.0 4.9189506299049315 -7.484433139929271 0.0
306 2 1.9928940478985406 8.276306127723103 0.0 5.529054160236946 0.8443050302833982 0.0
307 2 13.221783787422984 13.621406527421666 0.0 1.9270168656960764 -2.9654544664548337 0.0
308 1 10.90390154697592 1.4995609781654462 0.0 -0.3524592357846327 -3.1810789716767043 0.0
309 2 0.22316804431062048 18.73545303883721 0.0 -6.421252640748985 -4.671468658280691 0.0
310 1 10.838322588099192 18.04996555343932 0.0 -15.05692923641184 -3.413276516937808 0.0
311 2 4.945253670789642 6.885228516974783 0.0 -5.304581569483063 -3.676344842999077 0.0
312 1 9.317242172161219 5.57899198341599 0.0 16.32329639166603 5.6231561288484695 0.0
313 1 3.9779591100455285 16.808038972639505 0.0 5.299925490310153 6.581492177806653 0.0
314 2 3.1509526490117508 0.32263459442765857 0.0 -0.4053703089256398 -2.7602170618922273 0.0
315 2 19.458839620204664 3.740516833638505 0.0 15.327291551021707 2.679177809698659 0.0
316 1 3.3566696437361223 17.303593746834792 0.0 4.64066127517265 4.912831599207207 0.0
317 2 5.058227402648325 4.641761277346273 0.0 -4.715703398561846 3.6941934603056974 0.0
318 2 18.53720770053623 4.011758656661347 0.0 -3.497860152894266 5.223228472034847 0.0
319 1 15.200488232844789 14.634371558235028 0.0 -11.953302114125423 8.158867085059827 0.0
320 2 12.006818359622034 15.056615396437735 0.0 -5.327085990395753 -6.698858669671217 0.0
321 1 7.2371705188260185 19.159590631875993 0.0 10.053808893854296 1.2741278236930604 0.0
322 1 5.642121301017723 17.432002995733342 0.0 -5.09640801094917 -2.6588737768008155 0.0
323 1 13.163758931942324 15.42382252422006 0.0 -0.4624487981418072 -2.5212757227620437 0.0
324 2 3.562827777088657 7.3892196845454 0.0 11.248162916700762 15.49724462659765 0.0
325 1 1.0298188949517417 10.294963029914662 0.0 1.029038005094395 8.498873985297484 0.0
326 1 3.9486985551221365 3.966084265324888 0.0 -13.080493178162818 10.315508870637297 0.0
327 2 5.985546644145124 14.26245181205424 0.0 -0.45621089476482163 5.744422849568697 0.0
328 1 18.322006310641697 8.403743090869686 0.0 -14.144960497751915 1.6261017590232179 0.0
329 1 5.566834433946417 9.731975356103652 0.0 13.517543386266764 0.7803821766574712 0.0
330 2 4.007554228832112 0.8538794789925245 0.0 -1.8365304511207916 12.97947058740996 0.0
331 2 7.869112532123278 18.53145183525134 0.0 12.927866492117202 5.352372326735279 0.0
332 2 13.099647777262998 11.499536334899041 0.0 -14.88953522360166 -3.82019032225737 0.0
333 1 1.2070486304971255 15.575004558977643 0.0 -10.837542270699739 -4.435615137257148 0.0
334 1 15.811627480387768 16.09129705871328 0.0 4.434954244346661 -12.226240877153757 0.0
335 1 19.00312533619204 0.9159761033326046 0.0 4.487376336450484 -13.310194391293923 0.0
336 1 16.644464517448935 10.221423364446958 0.0 -3.6145872344413656 0.8115188033311497 0.0